111
Lattice="12.51515363 0.0 0.0 0.0 12.51515363 0.0 0.0 0.0 25.30973" Properties=species:S:1:pos:R:3:move_mask:L:1:forces:R:3 energy=-458.43117527 stress="0.00890263707185909 3.478040390589127e-05 0.0002650950616093274 3.478040390589127e-05 0.008805504291378061 0.00022632992848125327 0.0002650950616093274 0.00022632992848125327 0.003228167196334114" free_energy=-458.43384697 pbc="T T T"
Cu       1.25151999       1.25151999      10.00000011  F      -0.00231019      -0.01747254      -0.07471177
Cu       3.75454997       1.25151999      10.00000011  F       0.00751713       0.01035536      -0.07571573
Cu       6.25757994       1.25151999      10.00000011  F      -0.00598985       0.01508465      -0.05977036
Cu       8.76061004       1.25151999      10.00000011  F       0.00164834       0.01733470      -0.05106420
Cu      11.26364002       1.25151999      10.00000011  F      -0.00102511       0.00227033      -0.07959896
Cu       1.25151999       3.75454997      10.00000011  F       0.00091586       0.00950935      -0.07061401
Cu       3.75454997       3.75454997      10.00000011  F       0.01221496      -0.01332749      -0.06107216
Cu       6.25757994       3.75454997      10.00000011  F      -0.01954596      -0.01950148      -0.08519152
Cu       8.76061004       3.75454997      10.00000011  F       0.02472390      -0.01757712      -0.08681306
Cu      11.26364002       3.75454997      10.00000011  F      -0.01557074       0.00602888      -0.05901147
Cu       1.25151999       6.25757994      10.00000011  F      -0.00182436      -0.01110063      -0.07256968
Cu       3.75454997       6.25757994      10.00000011  F       0.01750213       0.00892267      -0.05793952
Cu       6.25757994       6.25757994      10.00000011  F      -0.01777705       0.02317437      -0.08554811
Cu       8.76061004       6.25757994      10.00000011  F       0.01481113       0.01207459      -0.07809028
Cu      11.26364002       6.25757994      10.00000011  F      -0.00983252      -0.01101277      -0.06080411
Cu       1.25151999       8.76061004      10.00000011  F      -0.00340923       0.02205484      -0.07210184
Cu       3.75454997       8.76061004      10.00000011  F       0.00359736      -0.00304156      -0.07560983
Cu       6.25757994       8.76061004      10.00000011  F      -0.00343877      -0.02117588      -0.05848878
Cu       8.76061004       8.76061004      10.00000011  F      -0.00029644      -0.01078897      -0.05050674
Cu      11.26364002       8.76061004      10.00000011  F       0.00267320       0.00543374      -0.06944137
Cu       1.25151999      11.26364002      10.00000011  F      -0.00955046      -0.00332927      -0.02423344
Cu       3.75454997      11.26364002      10.00000011  F      -0.01129991      -0.00089319      -0.07081165
Cu       6.25757994      11.26364002      10.00000011  F       0.00247770       0.00251623      -0.07092577
Cu       8.76061004      11.26364002      10.00000011  F      -0.00978561      -0.00049939      -0.07027199
Cu      11.26364002      11.26364002      10.00000011  F       0.02664024      -0.00196561      -0.06280437
Cu       0.00000000       0.00000000      11.76991004  F      -0.00788089       0.02834883       0.14655283
Cu       2.50302998       0.00000000      11.76991004  F       0.02614575       0.01039789       0.13857513
Cu       5.00605995       0.00000000      11.76991004  F       0.05472928       0.09578094       0.12446323
Cu       7.50909005       0.00000000      11.76991004  F       0.01300144       0.09500657       0.11687625
Cu      10.01212003       0.00000000      11.76991004  F      -0.00950224       0.06615116       0.15943454
Cu       0.00000000       2.50302998      11.76991004  F      -0.08539464       0.05112522       0.11745479
Cu       2.50302998       2.50302998      11.76991004  F       0.09298954       0.03201568       0.10258829
Cu       5.00605995       2.50302998      11.76991004  F       0.01353398      -0.02400738       0.11084186
Cu       7.50909005       2.50302998      11.76991004  F      -0.03256028      -0.01573879       0.14171476
Cu      10.01212003       2.50302998      11.76991004  F       0.03052462      -0.02396077       0.07725786
Cu       0.00000000       5.00605995      11.76991004  F      -0.09879311       0.01407911       0.10499951
Cu       2.50302998       5.00605995      11.76991004  F       0.08676709       0.00968038       0.11809713
Cu       5.00605995       5.00605995      11.76991004  F      -0.02042025      -0.00323125       0.16496076
Cu       7.50909005       5.00605995      11.76991004  F      -0.05541538      -0.00050741       0.17656589
Cu      10.01212003       5.00605995      11.76991004  F       0.01865188      -0.00071786       0.09432633
Cu       0.00000000       7.50909005      11.76991004  F      -0.08269849       0.01182188       0.14418509
Cu       2.50302998       7.50909005      11.76991004  F       0.05150342       0.01032887       0.14196165
Cu       5.00605995       7.50909005      11.76991004  F       0.00732983       0.02041261       0.11159567
Cu       7.50909005       7.50909005      11.76991004  F      -0.03012012       0.00175960       0.13286109
Cu      10.01212003       7.50909005      11.76991004  F       0.08200313       0.07843071       0.12547191
Cu       0.00000000      10.01212003      11.76991004  F       0.00270121      -0.03763518       0.12972438
Cu       2.50302998      10.01212003      11.76991004  F       0.01579423      -0.02173948       0.13336121
Cu       5.00605995      10.01212003      11.76991004  F       0.05375942      -0.08814136       0.12294325
Cu       7.50909005      10.01212003      11.76991004  F       0.01940862      -0.08566576       0.11904575
Cu      10.01212003      10.01212003      11.76991004  F       0.00117115      -0.08721616       0.15535865
Cu       1.26704029       1.25334908      13.57991032  T       0.00092902      -0.01231911      -0.00484643
Cu       3.78975172       1.26657898      13.61246597  T      -0.01608230      -0.00904627      -0.02236127
Cu       6.28384988       1.27986181      13.62828886  T       0.00049364      -0.00296179      -0.00248814
Cu       8.75466460       1.28596057      13.62459870  T       0.00236803      -0.00892503       0.00029076
Cu      11.25172109       1.27687131      13.60211885  T       0.01192695      -0.01189353      -0.01515659
Cu       1.24375384       3.75945103      13.57269528  T      -0.00177693      -0.00538307      -0.01438325
Cu       3.76884553       3.75120079      13.61123896  T      -0.02671250      -0.00419841      -0.01040751
Cu       6.27079795       3.76534692      13.59464261  T       0.00549605       0.00528031      -0.04658146
Cu       8.74464146       3.76577343      13.57384535  T      -0.01122575       0.00030590      -0.03607469
Cu      11.22529296       3.77161576      13.61895311  T       0.00971619      -0.00297794      -0.00517382
Cu       1.24174341       6.26989661      13.57391242  T      -0.00363532       0.00268097      -0.00943121
Cu       3.76792091       6.25859805      13.60981630  T      -0.02199875       0.00813603      -0.01034898
Cu       6.26836413       6.24537003      13.59329816  T       0.00333652      -0.00626832      -0.04319979
Cu       8.74125573       6.24306662      13.57415160  T      -0.00717637      -0.00284006      -0.04172369
Cu      11.22377763       6.25577701      13.61677901  T       0.00508647       0.00643677      -0.00209327
Cu       1.25791862       8.78575862      13.60738150  T      -0.00266625       0.01026177      -0.00857448
Cu       3.78780636       8.74749316      13.60873810  T      -0.00863187       0.00798034      -0.01156416
Cu       6.28710707       8.72924795      13.62463059  T       0.00152021       0.01066583      -0.00634420
Cu       8.76232124       8.72435414      13.61975315  T       0.00342379       0.01289048      -0.00087945
Cu      11.27630623       8.76227957      13.63173959  T       0.01511264       0.00862815      -0.01208851
Cu       1.24952633      11.26165912      13.62314921  T      -0.00824152      -0.00224287      -0.01208919
Cu       3.75115411      11.26662538      13.58098674  T      -0.01635091       0.00061341      -0.00571706
Cu       6.26149268      11.26471457      13.57286586  T      -0.00365658       0.00312044      -0.00468813
Cu       8.76682970      11.26614368      13.57379397  T      -0.00205452       0.00148801      -0.00542073
Cu      11.28766110      11.25973529      13.59747122  T       0.02444179      -0.00389524      -0.00308759
Cu      12.50942657       0.05904975      15.36112939  T      -0.00593260       0.01752513      -0.08623748
Cu       2.51529445       0.01804360      15.38114028  T       0.00068192       0.01300628      -0.07765264
Cu       5.00819829      12.48175807      15.37791329  T       0.01073118       0.00351406      -0.04634232
Cu       7.51379237      12.49214865      15.37243576  T       0.00260637       0.00260533      -0.05215600
Cu      10.01570524      12.49609480      15.36514073  T      -0.01115757       0.00352305      -0.05562100
Cu       0.05187869       2.52650290      15.37397104  T       0.00359787       0.00365931      -0.05056404
Cu       2.51786819       2.51129811      15.37697303  T      -0.00179756      -0.00202328      -0.04393459
Cu       4.99735504       2.42082995      15.49368531  T      -0.05380712      -0.07169028      -0.09253934
Cu       7.54768003       2.50822564      15.50409976  T       0.02958417      -0.06845590      -0.12620297
Cu      10.09577945       2.45314320      15.47354205  T       0.04783018      -0.06047111      -0.08485474
Cu      12.48858146       5.01821279      15.35978038  T      -0.00880727       0.00798806      -0.05935306
Cu       2.40491267       5.00834709      15.37769436  T      -0.02806837       0.00517350      -0.05187374
Pd       4.92705479       5.00593255      15.54399219  T       0.01194126       0.00187548      -0.06502058
Y        7.48591949       5.00472371      17.23458851  T      -0.02669030       0.00315264       0.07218396
Cu       9.97633707       5.00913004      15.47612592  T       0.08288977       0.00488868      -0.12809937
Cu       0.04499335       7.51142813      15.37609251  T       0.01155670      -0.02184553      -0.05317452
Cu       2.51514039       7.50594199      15.37106979  T      -0.00547889      -0.01189483      -0.04948674
Cu       4.99274883       7.59221107      15.49121609  T      -0.05117904       0.06441925      -0.09414973
Cu       7.54291238       7.50124242      15.50145362  T       0.03373500       0.06565291      -0.11618079
Cu      10.08716527       7.55978180      15.46979394  T       0.05389111       0.05687556      -0.08871325
Cu       0.00996857      10.03008953      15.49834736  T       0.00932220      -0.00377967      -0.01697432
Cu       2.56212303      10.00846798      15.37944124  T       0.02184355      -0.00604453      -0.08202222
Cu       5.03226706      10.04360590      15.37456203  T       0.01356705      -0.00678155      -0.05120634
Cu       7.52092150      10.03076222      15.36780256  T       0.00701351      -0.01191364      -0.05659131
Cu      10.00857323      10.03108249      15.35357292  T      -0.01933490      -0.00493331      -0.06375575
O        6.14428989       3.40964835      16.67999513  T      -0.09664690       0.03323427       0.12739061
O        6.13899135       6.59754808      16.67506530  T      -0.09058359      -0.03655549       0.12447214
O        8.98582111       6.43686703      16.56474727  T       0.04074583       0.07153643       0.10450176
O        8.98823453       3.58323153      16.55810549  T       0.04411444      -0.08435122       0.10192014
C       12.43901869      10.87420586      18.54245210  T      -0.28248015       0.04446153       0.19071449
C       10.94345458      10.75686641      18.61411939  T       0.23559214       0.03079378      -0.09078796
H        0.45979823      11.35782756      19.40260404  T      -0.15318350      -0.13822573      -0.23044443
H       10.51304894      11.57593002      17.98150674  T       0.09749057      -0.19633427       0.17240340
H       10.61616279       9.80483854      18.14665981  T       0.02918447       0.22236873       0.12158927
O        0.59858616      10.50933682      17.57175284  T      -0.14761298      -0.05045375       0.03212132
H       10.55832964      10.86027624      19.64438637  T       0.09090481      -0.02588857      -0.22643213
111
Lattice="12.51515363 0.0 0.0 0.0 12.51515363 0.0 0.0 0.0 25.30973" Properties=species:S:1:pos:R:3:move_mask:L:1:forces:R:3 energy=-458.43679513 stress="0.008774037785535012 2.8170196352923842e-05 0.00024478469783448237 2.8170196352923842e-05 0.00868423640650343 0.00022695617029939877 0.00024478469783448237 0.00022695617029939877 0.0031068973141765623" free_energy=-458.43947503 pbc="T T T"
Cu       1.25151999       1.25151999      10.00000011  F      -0.00250042      -0.01746959      -0.07564837
Cu       3.75454997       1.25151999      10.00000011  F       0.00738635       0.01044265      -0.07660247
Cu       6.25757994       1.25151999      10.00000011  F      -0.00595244       0.01494821      -0.06091883
Cu       8.76061004       1.25151999      10.00000011  F       0.00179580       0.01701281      -0.05238300
Cu      11.26364002       1.25151999      10.00000011  F      -0.00103204       0.00215768      -0.08098920
Cu       1.25151999       3.75454997      10.00000011  F       0.00092095       0.00937931      -0.07116953
Cu       3.75454997       3.75454997      10.00000011  F       0.01205242      -0.01333549      -0.06161972
Cu       6.25757994       3.75454997      10.00000011  F      -0.01964781      -0.01947016      -0.08594449
Cu       8.76061004       3.75454997      10.00000011  F       0.02471919      -0.01769288      -0.08780379
Cu      11.26364002       3.75454997      10.00000011  F      -0.01545722       0.00579417      -0.05978090
Cu       1.25151999       6.25757994      10.00000011  F      -0.00184093      -0.01095437      -0.07311397
Cu       3.75454997       6.25757994      10.00000011  F       0.01734129       0.00892788      -0.05846062
Cu       6.25757994       6.25757994      10.00000011  F      -0.01788209       0.02315459      -0.08635771
Cu       8.76061004       6.25757994      10.00000011  F       0.01480874       0.01216853      -0.07912067
Cu      11.26364002       6.25757994      10.00000011  F      -0.00970651      -0.01074679      -0.06159847
Cu       1.25151999       8.76061004      10.00000011  F      -0.00361972       0.02211236      -0.07311352
Cu       3.75454997       8.76061004      10.00000011  F       0.00343736      -0.00308797      -0.07652174
Cu       6.25757994       8.76061004      10.00000011  F      -0.00342360      -0.02105592      -0.05965050
Cu       8.76061004       8.76061004      10.00000011  F      -0.00009519      -0.01043209      -0.05187580
Cu      11.26364002       8.76061004      10.00000011  F       0.00269525       0.00559693      -0.07096806
Cu       1.25151999      11.26364002      10.00000011  F      -0.00981232      -0.00336180      -0.02551773
Cu       3.75454997      11.26364002      10.00000011  F      -0.01148017      -0.00086858      -0.07194696
Cu       6.25757994      11.26364002      10.00000011  F       0.00269890       0.00257690      -0.07259204
Cu       8.76061004      11.26364002      10.00000011  F      -0.00960481      -0.00046183      -0.07266956
Cu      11.26364002      11.26364002      10.00000011  F       0.02648457      -0.00199829      -0.06443416
Cu       0.00000000       0.00000000      11.76991004  F      -0.00770151       0.02852600       0.14450933
Cu       2.50302998       0.00000000      11.76991004  F       0.02581331       0.01051003       0.13670954
Cu       5.00605995       0.00000000      11.76991004  F       0.05451315       0.09597603       0.12301823
Cu       7.50909005       0.00000000      11.76991004  F       0.01300728       0.09514573       0.11530632
Cu      10.01212003       0.00000000      11.76991004  F      -0.00929078       0.06613834       0.15798023
Cu       0.00000000       2.50302998      11.76991004  F      -0.08508029       0.05132196       0.11583385
Cu       2.50302998       2.50302998      11.76991004  F       0.09261012       0.03215802       0.10078844
Cu       5.00605995       2.50302998      11.76991004  F       0.01296021      -0.02391194       0.10957629
Cu       7.50909005       2.50302998      11.76991004  F      -0.03269724      -0.01616003       0.13970386
Cu      10.01212003       2.50302998      11.76991004  F       0.03092387      -0.02403557       0.07579383
Cu       0.00000000       5.00605995      11.76991004  F      -0.09863842       0.01413526       0.10354982
Cu       2.50302998       5.00605995      11.76991004  F       0.08664581       0.00975097       0.11672652
Cu       5.00605995       5.00605995      11.76991004  F      -0.02161644      -0.00326162       0.16338484
Cu       7.50909005       5.00605995      11.76991004  F      -0.05564721      -0.00055258       0.17345365
Cu      10.01212003       5.00605995      11.76991004  F       0.01941623      -0.00079729       0.09261214
Cu       0.00000000       7.50909005      11.76991004  F      -0.08240546       0.01156163       0.14256145
Cu       2.50302998       7.50909005      11.76991004  F       0.05112704       0.01019736       0.14037259
Cu       5.00605995       7.50909005      11.76991004  F       0.00679682       0.02038514       0.11030486
Cu       7.50909005       7.50909005      11.76991004  F      -0.03029690       0.00214924       0.13094742
Cu      10.01212003       7.50909005      11.76991004  F       0.08245225       0.07859489       0.12389371
Cu       0.00000000      10.01212003      11.76991004  F       0.00286893      -0.03780189       0.12759146
Cu       2.50302998      10.01212003      11.76991004  F       0.01557152      -0.02190245       0.13159507
Cu       5.00605995      10.01212003      11.76991004  F       0.05346153      -0.08821649       0.12155148
Cu       7.50909005      10.01212003      11.76991004  F       0.01944699      -0.08558749       0.11744134
Cu      10.01212003      10.01212003      11.76991004  F       0.00142554      -0.08717690       0.15389728
Cu       1.26704930       1.25323019      13.57986350  T       0.00106123      -0.00987879      -0.00813340
Cu       3.78959653       1.26649175      13.61225008  T      -0.01504718      -0.00828265      -0.02462793
Cu       6.28385463       1.27983328      13.62826507  T      -0.00024378      -0.00234597      -0.00612056
Cu       8.75468750       1.28587447      13.62460148  T       0.00284384      -0.00818987      -0.00490521
Cu      11.25183623       1.27675668      13.60197256  T       0.01136902      -0.01069823      -0.01884383
Cu       1.24373669       3.75939909      13.57255658  T      -0.00148467      -0.00478247      -0.01563153
Cu       3.76858784       3.75116036      13.61113848  T      -0.02399715      -0.00319960      -0.01159655
Cu       6.27085101       3.76539785      13.59419311  T       0.00332102       0.00449777      -0.04247226
Cu       8.74453320       3.76577644      13.57349709  T      -0.00941679       0.00030144      -0.03325517
Cu      11.22538670       3.77158710      13.61890325  T       0.00906409      -0.00330975      -0.00888018
Cu       1.24170836       6.26992251      13.57382156  T      -0.00312784       0.00212116      -0.01186954
Cu       3.76770865       6.25867652      13.60971633  T      -0.01971408       0.00675589      -0.01183456
Cu       6.26839642       6.24530946      13.59288131  T       0.00172385      -0.00522517      -0.03937889
Cu       8.74118640       6.24303921      13.57374892  T      -0.00603623      -0.00248081      -0.03843428
Cu      11.22382669       6.25583909      13.61675876  T       0.00497916       0.00636632      -0.00645174
Cu       1.25789283       8.78585761      13.60729874  T      -0.00261904       0.00886810      -0.01032942
Cu       3.78772314       8.74757013      13.60862674  T      -0.00836576       0.00716979      -0.01523046
Cu       6.28712171       8.72935094      13.62456959  T       0.00092031       0.00909996      -0.00969253
Cu       8.76235428       8.72447842      13.61974480  T       0.00378057       0.01136034      -0.00611747
Cu      11.27645203       8.76236292      13.63162316  T       0.01526442       0.00851842      -0.01507782
Cu       1.24944673      11.26163759      13.62303253  T      -0.00738198      -0.00260896      -0.01379236
Cu       3.75099629      11.26663127      13.58093157  T      -0.01418426       0.00087137      -0.00838385
Cu       6.26145751      11.26474461      13.57282056  T      -0.00389114       0.00305410      -0.00738292
Cu       8.76680993      11.26615794      13.57374158  T      -0.00156627       0.00162740      -0.00861002
Cu      11.28789702      11.25969775      13.59744136  T       0.02176486      -0.00416824      -0.00572720
Cu      12.50936938       0.05921883      15.36029721  T      -0.00520493       0.01502239      -0.07787728
Cu       2.51530108       0.01816912      15.38039111  T       0.00053074       0.01159337      -0.07164376
Cu       5.00830191      12.48179198      15.37746606  T       0.00958272       0.00153156      -0.04346921
Cu       7.51381752      12.49217381      15.37193260  T       0.00193084       0.00085748      -0.04788056
Cu      10.01559749      12.49612884      15.36460417  T      -0.01018601       0.00135251      -0.05202066
Cu       0.05191348       2.52653819      15.37348333  T       0.00469724       0.00442062      -0.04767015
Cu       2.51785092       2.51127859      15.37654909  T      -0.00309840      -0.00095761      -0.04167750
Cu       4.99683578       2.42013823      15.49279238  T      -0.04007032      -0.05553002      -0.07821858
Cu       7.54796550       2.50756509      15.50288210  T       0.02239337      -0.05245841      -0.10631429
Cu      10.09624088       2.45255974      15.47272328  T       0.03757605      -0.04783678      -0.07271537
Cu      12.48849648       5.01828988      15.35920788  T      -0.00630340       0.00672365      -0.05577636
Cu       2.40464197       5.00839703      15.37719399  T      -0.02416080       0.00441890      -0.04894666
Pd       4.92717005       5.00595069      15.54336476  T       0.01243588       0.00050902      -0.04249189
Y        7.48566193       5.00475412      17.23528503  T      -0.01631050       0.00148725       0.06629079
Cu       9.97713692       5.00917722      15.47489005  T       0.06571978       0.00368636      -0.10845147
Cu       0.04510486       7.51121725      15.37557948  T       0.01200536      -0.02015603      -0.04960143
Cu       2.51508745       7.50582722      15.37059245  T      -0.00616535      -0.01123241      -0.04659998
Cu       4.99225498       7.59283257      15.49030772  T      -0.03782936       0.04957366      -0.07978216
Cu       7.54323790       7.50187594      15.50033266  T       0.02669068       0.05076560      -0.09810208
Cu      10.08768527       7.56033059      15.46893796  T       0.04297068       0.04443377      -0.07598882
Cu       0.01005843      10.03005311      15.49818361  T       0.00921125      -0.00242641      -0.00873876
Cu       2.56233378      10.00840966      15.37864980  T       0.01937595      -0.00547208      -0.07484519
Cu       5.03239797      10.04354057      15.37406798  T       0.01285314      -0.00452209      -0.04775880
Cu       7.52098921      10.03064721      15.36725637  T       0.00589722      -0.00944464      -0.05192326
Cu      10.00838663      10.03103480      15.35295764  T      -0.01715386      -0.00255247      -0.05939458
O        6.14335739       3.40996899      16.68122417  T      -0.09896476       0.02418892       0.10825977
O        6.13811730       6.59719541      16.67626624  T      -0.09348916      -0.02737523       0.10594806
O        8.98621421       6.43755724      16.56575561  T       0.04365723       0.07141487       0.08976155
O        8.98866017       3.58241767      16.55908903  T       0.04603029      -0.08286322       0.08761662
C       12.43629327      10.87463488      18.54429237  T      -0.15030916      -0.02194796       0.01355651
C       10.94572771      10.75716352      18.61324342  T       0.16369661       0.01938918      -0.02035605
H        0.45832032      11.35649382      19.40038058  T      -0.12841121      -0.10320859      -0.16446552
H       10.51398958      11.57403573      17.98317009  T       0.07957599      -0.14467956       0.12989207
H       10.61644438       9.80698402      18.14783292  T       0.02768023       0.17743817       0.09220701
O        0.59716193      10.50884998      17.57206288  T      -0.19778536      -0.02182433       0.10658208
H       10.55920670      10.86002644      19.64220163  T       0.08396326      -0.02024356      -0.20292615
111
Lattice="12.51515363 0.0 0.0 0.0 12.51515363 0.0 0.0 0.0 25.30973" Properties=species:S:1:pos:R:3:move_mask:L:1:forces:R:3 energy=-458.44429553 stress="0.008682675804527631 2.9988497757512655e-05 0.000259750032922213 2.9988497757512655e-05 0.008645585736411216 0.00020592136080182155 0.000259750032922213 0.00020592136080182155 0.0030014590636073773" free_energy=-458.44695993 pbc="T T T"
Cu       1.25151999       1.25151999      10.00000011  F      -0.00238635      -0.01720052      -0.07497490
Cu       3.75454997       1.25151999      10.00000011  F       0.00759500       0.01057696      -0.07611764
Cu       6.25757994       1.25151999      10.00000011  F      -0.00594130       0.01504852      -0.06020148
Cu       8.76061004       1.25151999      10.00000011  F       0.00173720       0.01719963      -0.05159607
Cu      11.26364002       1.25151999      10.00000011  F      -0.00095310       0.00237963      -0.08044846
Cu       1.25151999       3.75454997      10.00000011  F       0.00101461       0.00940105      -0.07094101
Cu       3.75454997       3.75454997      10.00000011  F       0.01219917      -0.01320471      -0.06137977
Cu       6.25757994       3.75454997      10.00000011  F      -0.01961699      -0.01936854      -0.08558264
Cu       8.76061004       3.75454997      10.00000011  F       0.02476886      -0.01758562      -0.08723086
Cu      11.26364002       3.75454997      10.00000011  F      -0.01539318       0.00588451      -0.05920691
Cu       1.25151999       6.25757994      10.00000011  F      -0.00176999      -0.01107007      -0.07288575
Cu       3.75454997       6.25757994      10.00000011  F       0.01750206       0.00871466      -0.05816936
Cu       6.25757994       6.25757994      10.00000011  F      -0.01785964       0.02295311      -0.08601756
Cu       8.76061004       6.25757994      10.00000011  F       0.01487985       0.01198125      -0.07854673
Cu      11.26364002       6.25757994      10.00000011  F      -0.00964024      -0.01088911      -0.06100309
Cu       1.25151999       8.76061004      10.00000011  F      -0.00350412       0.02183269      -0.07250048
Cu       3.75454997       8.76061004      10.00000011  F       0.00363523      -0.00324623      -0.07603743
Cu       6.25757994       8.76061004      10.00000011  F      -0.00342935      -0.02122207      -0.05890978
Cu       8.76061004       8.76061004      10.00000011  F      -0.00010894      -0.01067203      -0.05105268
Cu      11.26364002       8.76061004      10.00000011  F       0.00275674       0.00531437      -0.07050574
Cu       1.25151999      11.26364002      10.00000011  F      -0.00963508      -0.00337369      -0.02515498
Cu       3.75454997      11.26364002      10.00000011  F      -0.01123311      -0.00088420      -0.07120132
Cu       6.25757994      11.26364002      10.00000011  F       0.00260320       0.00259791      -0.07185283
Cu       8.76061004      11.26364002      10.00000011  F      -0.00960976      -0.00045778      -0.07212551
Cu      11.26364002      11.26364002      10.00000011  F       0.02649155      -0.00200438      -0.06382304
Cu       0.00000000       0.00000000      11.76991004  F      -0.00761699       0.02843426       0.14301475
Cu       2.50302998       0.00000000      11.76991004  F       0.02569207       0.01017404       0.13529656
Cu       5.00605995       0.00000000      11.76991004  F       0.05487089       0.09579883       0.12226863
Cu       7.50909005       0.00000000      11.76991004  F       0.01305120       0.09505731       0.11451163
Cu      10.01212003       0.00000000      11.76991004  F      -0.00930015       0.06574301       0.15745336
Cu       0.00000000       2.50302998      11.76991004  F      -0.08513154       0.05114012       0.11487226
Cu       2.50302998       2.50302998      11.76991004  F       0.09233310       0.03199215       0.09950888
Cu       5.00605995       2.50302998      11.76991004  F       0.01274487      -0.02435877       0.10852896
Cu       7.50909005       2.50302998      11.76991004  F      -0.03248887      -0.01740748       0.13766891
Cu      10.01212003       2.50302998      11.76991004  F       0.03123926      -0.02439204       0.07506771
Cu       0.00000000       5.00605995      11.76991004  F      -0.09890878       0.01421518       0.10289577
Cu       2.50302998       5.00605995      11.76991004  F       0.08634731       0.00982628       0.11567330
Cu       5.00605995       5.00605995      11.76991004  F      -0.02281577      -0.00328254       0.16189359
Cu       7.50909005       5.00605995      11.76991004  F      -0.05544729      -0.00061387       0.16970528
Cu      10.01212003       5.00605995      11.76991004  F       0.02043759      -0.00093349       0.09125063
Cu       0.00000000       7.50909005      11.76991004  F      -0.08245071       0.01165489       0.14167266
Cu       2.50302998       7.50909005      11.76991004  F       0.05086202       0.01042748       0.13949956
Cu       5.00605995       7.50909005      11.76991004  F       0.00662499       0.02086949       0.10925536
Cu       7.50909005       7.50909005      11.76991004  F      -0.03013382       0.00331552       0.12908502