109
Lattice="12.51515363 0.0 0.0 0.0 12.51515363 0.0 0.0 0.0 25.30973" Properties=species:S:1:pos:R:3:move_mask:L:1:forces:R:3 energy=-453.56337643 stress="0.008025554070049755 3.3974662526794504e-05 0.00047351844369142353 3.3974662526794504e-05 0.00884971484162603 -6.706656969338795e-05 0.00047351844369142353 -6.706656969338795e-05 0.0029159023102379804" free_energy=-453.56173681 pbc="T T T"
Cu       1.25151999       1.25151999      10.00000011  F       0.00512617      -0.00297130      -0.06789198
Cu       3.75454997       1.25151999      10.00000011  F       0.00187997       0.00487384      -0.07313236
Cu       6.25757994       1.25151999      10.00000011  F       0.00773774       0.02605819      -0.05320528
Cu       8.76061004       1.25151999      10.00000011  F      -0.01075744       0.01313222      -0.04631157
Cu      11.26364002       1.25151999      10.00000011  F      -0.00523267      -0.00577470      -0.07177760
Cu       1.25151999       3.75454997      10.00000011  F       0.00322051       0.01323938      -0.06037300
Cu       3.75454997       3.75454997      10.00000011  F       0.00211114      -0.01217272      -0.05136855
Cu       6.25757994       3.75454997      10.00000011  F      -0.00244935      -0.02523845      -0.08171832
Cu       8.76061004       3.75454997      10.00000011  F      -0.00025635      -0.02055274      -0.08502827
Cu      11.26364002       3.75454997      10.00000011  F      -0.00080501       0.00911401      -0.04976441
Cu       1.25151999       6.25757994      10.00000011  F       0.00330034      -0.01098191      -0.06181321
Cu       3.75454997       6.25757994      10.00000011  F       0.00258451       0.01378280      -0.05057627
Cu       6.25757994       6.25757994      10.00000011  F      -0.00282180       0.02715977      -0.08426681
Cu       8.76061004       6.25757994      10.00000011  F      -0.00119867       0.02168506      -0.08546966
Cu      11.26364002       6.25757994      10.00000011  F      -0.00022734      -0.00684191      -0.05150852
Cu       1.25151999       8.76061004      10.00000011  F       0.00575242      -0.00177871      -0.06579625
Cu       3.75454997       8.76061004      10.00000011  F       0.00014769      -0.00918976      -0.07300490
Cu       6.25757994       8.76061004      10.00000011  F       0.01077914      -0.02926843      -0.05038665
Cu       8.76061004       8.76061004      10.00000011  F      -0.01194252      -0.01520840      -0.04622388
Cu      11.26364002       8.76061004      10.00000011  F      -0.00606265       0.00042122      -0.06945952
Cu       1.25151999      11.26364002      10.00000011  F       0.00495136       0.00309485      -0.00979201
Cu       3.75454997      11.26364002      10.00000011  F      -0.00348345       0.00274151      -0.06194442
Cu       6.25757994      11.26364002      10.00000011  F       0.00093246       0.00113514      -0.07411448
Cu       8.76061004      11.26364002      10.00000011  F      -0.00577380       0.00115365      -0.07525476
Cu      11.26364002      11.26364002      10.00000011  F       0.00366839       0.00305700      -0.05807042
Cu       0.00000000       0.00000000      11.76991004  F       0.00919316       0.03531351       0.14041354
Cu       2.50302998       0.00000000      11.76991004  F       0.03592716       0.02978822       0.12186305
Cu       5.00605995       0.00000000      11.76991004  F       0.05827679       0.07751294       0.11218080
Cu       7.50909005       0.00000000      11.76991004  F       0.02231279       0.08702992       0.12702524
Cu      10.01212003       0.00000000      11.76991004  F      -0.02430776       0.05348654       0.09384242
Cu       0.00000000       2.50302998      11.76991004  F      -0.09670355       0.00481958       0.07285211
Cu       2.50302998       2.50302998      11.76991004  F       0.13490576       0.01081347       0.08860442
Cu       5.00605995       2.50302998      11.76991004  F      -0.00745691       0.00867473       0.17815617
Cu       7.50909005       2.50302998      11.76991004  F      -0.02359752      -0.00951249       0.13354504
Cu      10.01212003       2.50302998      11.76991004  F       0.11342274      -0.02180372       0.09016050
Cu       0.00000000       5.00605995      11.76991004  F      -0.13137935       0.00072611       0.06647511
Cu       2.50302998       5.00605995      11.76991004  F       0.13545270      -0.00195033       0.09428219
Cu       5.00605995       5.00605995      11.76991004  F      -0.02710445      -0.00087128       0.30136518
Cu       7.50909005       5.00605995      11.76991004  F      -0.05800212      -0.00205075       0.19323429
Cu      10.01212003       5.00605995      11.76991004  F       0.08509466       0.00012478       0.07015357
Cu       0.00000000       7.50909005      11.76991004  F      -0.10618496       0.00558810       0.06843339
Cu       2.50302998       7.50909005      11.76991004  F       0.13620879      -0.00377807       0.08128748
Cu       5.00605995       7.50909005      11.76991004  F      -0.01290409      -0.01744695       0.17854008
Cu       7.50909005       7.50909005      11.76991004  F      -0.02759494       0.00234721       0.13527766
Cu      10.01212003       7.50909005      11.76991004  F       0.10465439       0.02633539       0.08863459
Cu       0.00000000      10.01212003      11.76991004  F       0.00498355      -0.03365334       0.14006138
Cu       2.50302998      10.01212003      11.76991004  F       0.03259028      -0.03484242       0.12437688
Cu       5.00605995      10.01212003      11.76991004  F       0.05987004      -0.08404252       0.10944983
Cu       7.50909005      10.01212003      11.76991004  F       0.01749228      -0.09559165       0.12655326
Cu      10.01212003      10.01212003      11.76991004  F      -0.02724173      -0.05827902       0.10068057
Cu       1.28062136       1.24714682      13.58883200  T       0.00453646      -0.02124656      -0.00236993
Cu       3.79787105       1.26614157      13.60754703  T      -0.00410707       0.00426369      -0.00794159
Cu       6.29854204       1.27973829      13.61844110  T      -0.00017404      -0.00165230      -0.01145979
Cu       8.78447319       1.27498040      13.61391698  T      -0.00658569      -0.00312038      -0.00364487
Cu      11.27204394       1.26488055      13.60599807  T       0.00922027      -0.00039555       0.00058394
Cu       1.24915926       3.75370307      13.55059431  T      -0.00722522      -0.00819178      -0.00789461
Cu       3.77370741       3.78343131      13.64020190  T      -0.01960593      -0.00136389      -0.01584156
Cu       6.26069384       3.78136544      13.60853183  T      -0.00446232       0.00535182      -0.03521932
Cu       8.75655000       3.76604464      13.55845577  T      -0.01054893      -0.00111778      -0.05303875
Cu      11.25042139       3.77419025      13.62943767  T      -0.00213912       0.00321243      -0.00644670
Cu       1.24694871       6.26334029      13.54597984  T      -0.00817864       0.00991621      -0.01037396
Cu       3.77030092       6.22632460      13.64113279  T      -0.01778246      -0.00392025      -0.01413812
Cu       6.25736556       6.22633711      13.60689302  T      -0.00599897      -0.00998249      -0.03241094
Cu       8.75351333       6.24421238      13.55863825  T      -0.01103367      -0.00198125      -0.05335787
Cu      11.24638550       6.24270093      13.62732228  T      -0.00272986      -0.01178927      -0.00579079
Cu       1.27771033       8.76574989      13.59094967  T       0.00552101       0.01814369      -0.00268579
Cu       3.79554936       8.74329070      13.60790617  T      -0.00555259      -0.00599348      -0.00527718
Cu       6.29598407       8.72626971      13.62062203  T       0.00112578       0.00428006      -0.01320125
Cu       8.78076808       8.73321287      13.61679824  T      -0.00645645       0.00832264      -0.00235751
Cu      11.26970549       8.74911926      13.60793452  T       0.00739578      -0.00116373       0.00299164
Cu       1.24530272      11.26407455      13.60933617  T      -0.00517984       0.00262699      -0.02284701
Cu       3.74043125      11.26204058      13.58419880  T      -0.02059515       0.00201525      -0.00061195
Cu       6.25205776      11.26068331      13.57306581  T      -0.00156979       0.00108076      -0.00123083
Cu       8.76266841      11.26173634      13.57856081  T      -0.00549918       0.00236899      -0.00054056
Cu      11.26641125      11.26446902      13.58798134  T       0.02117253       0.00159775       0.00325159
Cu      12.50864400       0.00142986      15.39883735  T      -0.01666309       0.02102223      -0.08442528
Cu       2.49992371       0.00576911      15.39765640  T       0.02420631       0.01927343      -0.08366559
Cu       5.00016394      12.48069215      15.36909082  T       0.01665719      -0.01096146      -0.05089114
Cu       7.51031378      12.48946165      15.36408987  T      -0.00648597      -0.00186616      -0.06041658
Cu      10.01254729      12.49993258      15.37892795  T      -0.00984320       0.00567176      -0.05834317
Cu       0.08929600       2.48096438      15.35840227  T       0.01216709       0.01445209      -0.04945084
Cu       2.57035149       2.50599269      15.37311937  T       0.00044698       0.01524627      -0.04729724
Cu       5.03826169       2.43182363      15.45959462  T      -0.05404657      -0.05170694      -0.09047669
Cu       7.64192426       2.50098062      15.45465214  T       0.05793479      -0.08228665      -0.12743355
Cu      10.15119817       2.46236887      15.47943213  T       0.03221173      -0.05971684      -0.07291949
Cu      12.40371282       5.00960800      15.45431501  T      -0.03767056      -0.00400448      -0.05205740
Cu       2.27919946       5.00555822      15.45402041  T      -0.02642546       0.00024136      -0.04263149
Pd       4.68460435       4.99091374      15.92234203  T      -0.07919827      -0.00174887      -0.00572848
Y        7.51886977       4.99826138      17.29163512  T      -0.06982951       0.00111188       0.07183827
Cu       9.93798063       5.00756377      15.47354028  T       0.09294245       0.00424954      -0.16464497
Cu       0.08123086       7.53526862      15.36341081  T       0.01022603      -0.00540817      -0.05472290
Cu       2.56478625       7.50784867      15.37508720  T       0.00154751      -0.00935124      -0.05232301
Cu       5.03096723       7.56568683      15.45944251  T      -0.05249311       0.04829029      -0.08826943
Cu       7.62769579       7.49523515      15.45882470  T       0.05255542       0.08748175      -0.12901301
Cu      10.14132309       7.55109429      15.48025166  T       0.03263270       0.05930807      -0.07504837
Cu      12.50874687      10.01517885      15.39989074  T      -0.01565434      -0.02351859      -0.08517164
Cu       2.49987753      10.00708618      15.39876876  T       0.02445889      -0.01657717      -0.08503507
Cu       5.00033339      10.03666500      15.36950286  T       0.01691845       0.00005684      -0.04985520
Cu       7.50996136      10.02884465      15.36532752  T      -0.00619963      -0.00687788      -0.06010088
Cu      10.01287356      10.03024134      15.37993579  T      -0.01155014      -0.00936646      -0.05971944
O        6.30009905       3.37779654      16.53410908  T      -0.08101517      -0.00047111       0.03608727
O        6.27915457       6.60072844      16.53273502  T      -0.07782530      -0.00115386       0.04765653
O        9.03806399       6.43668819      16.57979365  T       0.04390663       0.11037032       0.11062560
O        9.05198247       3.57728846      16.58008471  T       0.04009823      -0.11943006       0.10661464
C        4.44963885       4.93420119      17.89628964  T      -0.36432512       0.00082757       0.10416333
O        5.43559504       4.96075372      18.63307790  T      -0.04213320       0.00433546       0.12106382
H        3.42810620       4.86724412      18.36154904  T       0.24563447       0.05324002      -0.10722693
C        1.06686090       5.13017173      16.99610783  T      -0.07170174      -0.01838177      -0.49175638
O        1.16908606       5.18380592      18.16303141  T       0.00588005       0.00697968       0.55323275
109
Lattice="12.51515363 0.0 0.0 0.0 12.51515363 0.0 0.0 0.0 25.30973" Properties=species:S:1:pos:R:3:move_mask:L:1:forces:R:3 energy=-453.57242558 stress="0.008008771195021547 3.3058109394676797e-05 0.0005246625678386631 3.3058109394676797e-05 0.008835923010118112 -5.534477213612329e-05 0.0005246625678386631 -5.534477213612329e-05 0.0031530394991518282" free_energy=-453.57077906 pbc="T T T"
Cu       1.25151999       1.25151999      10.00000011  F       0.00501568      -0.00270785      -0.06767624
Cu       3.75454997       1.25151999      10.00000011  F       0.00160656       0.00520999      -0.07305803
Cu       6.25757994       1.25151999      10.00000011  F       0.00740463       0.02616532      -0.05337975
Cu       8.76061004       1.25151999      10.00000011  F      -0.01058800       0.01317034      -0.04665994
Cu      11.26364002       1.25151999      10.00000011  F      -0.00508946      -0.00565019      -0.07200478
Cu       1.25151999       3.75454997      10.00000011  F       0.00323479       0.01318451      -0.06007446
Cu       3.75454997       3.75454997      10.00000011  F       0.00189174      -0.01212721      -0.05115793
Cu       6.25757994       3.75454997      10.00000011  F      -0.00292209      -0.02509424      -0.08169608
Cu       8.76061004       3.75454997      10.00000011  F      -0.00006845      -0.02044561      -0.08501536
Cu      11.26364002       3.75454997      10.00000011  F      -0.00075113       0.00906448      -0.04961183
Cu       1.25151999       6.25757994      10.00000011  F       0.00331790      -0.01094088      -0.06155184
Cu       3.75454997       6.25757994      10.00000011  F       0.00236100       0.01372878      -0.05036510
Cu       6.25757994       6.25757994      10.00000011  F      -0.00328243       0.02701603      -0.08423423
Cu       8.76061004       6.25757994      10.00000011  F      -0.00100576       0.02158187      -0.08546274
Cu      11.26364002       6.25757994      10.00000011  F      -0.00018086      -0.00679005      -0.05139322
Cu       1.25151999       8.76061004      10.00000011  F       0.00564166      -0.00202684      -0.06561263
Cu       3.75454997       8.76061004      10.00000011  F      -0.00012064      -0.00951251      -0.07295369
Cu       6.25757994       8.76061004      10.00000011  F       0.01043911      -0.02938503      -0.05054874
Cu       8.76061004       8.76061004      10.00000011  F      -0.01176382      -0.01527072      -0.04657420
Cu      11.26364002       8.76061004      10.00000011  F      -0.00592311       0.00029569      -0.06969087
Cu       1.25151999      11.26364002      10.00000011  F       0.00470242       0.00307489      -0.00982579
Cu       3.75454997      11.26364002      10.00000011  F      -0.00371338       0.00272512      -0.06192447
Cu       6.25757994      11.26364002      10.00000011  F       0.00089335       0.00112814      -0.07431610
Cu       8.76061004      11.26364002      10.00000011  F      -0.00580553       0.00115157      -0.07574947
Cu      11.26364002      11.26364002      10.00000011  F       0.00380687       0.00304173      -0.05867474
Cu       0.00000000       0.00000000      11.76991004  F       0.00914597       0.03553775       0.13897382
Cu       2.50302998       0.00000000      11.76991004  F       0.03575242       0.03012612       0.12058939
Cu       5.00605995       0.00000000      11.76991004  F       0.05750774       0.07771810       0.11187137
Cu       7.50909005       0.00000000      11.76991004  F       0.02222834       0.08686267       0.12630544
Cu      10.01212003       0.00000000      11.76991004  F      -0.02366449       0.05360487       0.09353024
Cu       0.00000000       2.50302998      11.76991004  F      -0.09648776       0.00480039       0.07226049
Cu       2.50302998       2.50302998      11.76991004  F       0.13448574       0.01082075       0.08790631
Cu       5.00605995       2.50302998      11.76991004  F      -0.00794896       0.00890190       0.17735040
Cu       7.50909005       2.50302998      11.76991004  F      -0.02409800      -0.00952121       0.13242306
Cu      10.01212003       2.50302998      11.76991004  F       0.11395547      -0.02217055       0.08920489
Cu       0.00000000       5.00605995      11.76991004  F      -0.13119138       0.00070081       0.06631381
Cu       2.50302998       5.00605995      11.76991004  F       0.13503568      -0.00195785       0.09427184
Cu       5.00605995       5.00605995      11.76991004  F      -0.02783648      -0.00089401       0.30042273
Cu       7.50909005       5.00605995      11.76991004  F      -0.05879459      -0.00204828       0.19117408
Cu      10.01212003       5.00605995      11.76991004  F       0.08562345       0.00010310       0.06840212
Cu       0.00000000       7.50909005      11.76991004  F      -0.10608027       0.00559728       0.06787630
Cu       2.50302998       7.50909005      11.76991004  F       0.13584141      -0.00383232       0.08053973
Cu       5.00605995       7.50909005      11.76991004  F      -0.01340171      -0.01773308       0.17781997
Cu       7.50909005       7.50909005      11.76991004  F      -0.02805674       0.00234873       0.13422814
Cu      10.01212003       7.50909005      11.76991004  F       0.10516438       0.02670548       0.08776585
Cu       0.00000000      10.01212003      11.76991004  F       0.00491806      -0.03389273       0.13871314
Cu       2.50302998      10.01212003      11.76991004  F       0.03239994      -0.03515966       0.12316292
Cu       5.00605995      10.01212003      11.76991004  F       0.05907939      -0.08424489       0.10919715
Cu       7.50909005      10.01212003      11.76991004  F       0.01743125      -0.09541199       0.12582161
Cu      10.01212003      10.01212003      11.76991004  F      -0.02657127      -0.05841160       0.10043237
Cu       1.28066516       1.24694183      13.58880922  T       0.00432739      -0.01870356      -0.00444140
Cu       3.79783137       1.26618275      13.60747034  T      -0.00446480       0.00411033      -0.01046766
Cu       6.29854029       1.27972239      13.61833049  T      -0.00081092      -0.00118761      -0.01360155
Cu       8.78440961       1.27495024      13.61388180  T      -0.00462992      -0.00377824      -0.00824752
Cu      11.27213293       1.26487679      13.60600364  T       0.00921196       0.00018523      -0.00298133
Cu       1.24908955       3.75362397      13.55051813  T      -0.00658826      -0.00804623      -0.01172843
Cu       3.77351819       3.78341805      13.64004902  T      -0.01847337      -0.00029833      -0.01728164
Cu       6.26065079       3.78141700      13.60819192  T      -0.00509196       0.00474191      -0.03215442
Cu       8.75644825       3.76603387      13.55794401  T      -0.00987387      -0.00066369      -0.04931404
Cu      11.25040074       3.77422129      13.62937566  T      -0.00210269       0.00186904      -0.01019686
Cu       1.24686974       6.26343591      13.54587962  T      -0.00741907       0.00963385      -0.01402113
Cu       3.77012933       6.22628680      13.64099637  T      -0.01675658      -0.00470391      -0.01569093
Cu       6.25730774       6.22624075      13.60658045  T      -0.00646196      -0.00907467      -0.02947247
Cu       8.75340682       6.24419323      13.55812345  T      -0.01039279      -0.00206198      -0.04959826
Cu      11.24635909       6.24258729      13.62726660  T      -0.00272316      -0.01002409      -0.00977398
Cu       1.27776352       8.76592498      13.59092385  T       0.00518423       0.01612416      -0.00493330
Cu       3.79549567       8.74323288      13.60785530  T      -0.00572950      -0.00582594      -0.00809175
Cu       6.29599483       8.72631101      13.62049473  T       0.00021211       0.00349024      -0.01545905
Cu       8.78070575       8.73329309      13.61677572  T      -0.00461396       0.00836837      -0.00703883
Cu      11.26977682       8.74910812      13.60796363  T       0.00760057      -0.00174749      -0.00084890
Cu       1.24525278      11.26409995      13.60911573  T      -0.00466809       0.00232269      -0.02329814
Cu       3.74023263      11.26206011      13.58419298  T      -0.01879922       0.00177404      -0.00305987
Cu       6.25204261      11.26069383      13.57305392  T      -0.00223514       0.00093295      -0.00388048
Cu       8.76261535      11.26175912      13.57855575  T      -0.00456788       0.00225232      -0.00292112
Cu      11.26661550      11.26448442      13.58801273  T       0.01887040       0.00142007       0.00035292
Cu      12.50848318       0.00163273      15.39802263  T      -0.01503050       0.01977996      -0.08051905
Cu       2.50015725       0.00595509      15.39684927  T       0.02286048       0.01837180      -0.08033046
Cu       5.00032476      12.48058640      15.36859981  T       0.01564951      -0.01116395      -0.04874073
Cu       7.51025121      12.48944362      15.36350699  T      -0.00650731      -0.00312776      -0.05708715
Cu      10.01245243      12.49998739      15.37836507  T      -0.00972977       0.00360036      -0.05562997
Cu       0.08941339       2.48110380      15.35792518  T       0.01243753       0.01491858      -0.04592815
Cu       2.57035587       2.50613974      15.37266304  T      -0.00096122       0.01543445      -0.04460148
Cu       5.03774018       2.43132465      15.45872169  T      -0.04354004      -0.04278029      -0.08104829
Cu       7.64248332       2.50018666      15.45342259  T       0.04499411      -0.06422714      -0.10648453
Cu      10.15150893       2.46179267      15.47872852  T       0.02494746      -0.05000557      -0.06304207
Cu      12.40334938       5.00956932      15.45381261  T      -0.04193028      -0.00454582      -0.05203377
Cu       2.27894452       5.00556047      15.45360912  T      -0.02358009       0.00002363      -0.03612730
Pd       4.68384017       4.99089697      15.92228686  T      -0.07024871      -0.00251851       0.01505164
Y        7.51819595       4.99827202      17.29232810  T      -0.06024915       0.00102684       0.06720012
Cu       9.93887734       5.00760482      15.47195159  T       0.07130847       0.00365119      -0.14142376
Cu       0.08132948       7.53521643      15.36288285  T       0.01104100      -0.00793887      -0.04964934
Cu       2.56480127       7.50775844      15.37458227  T      -0.00049682      -0.01064984      -0.04836111
Cu       5.03046075       7.56615277      15.45859084  T      -0.04162906       0.03884551      -0.07869472
Cu       7.62820290       7.49607917      15.45757997  T       0.04132688       0.06953947      -0.10870501
Cu      10.14163797       7.55166648      15.47952755  T       0.02441965       0.04893500      -0.06479490
Cu      12.50859581      10.01495195      15.39906893  T      -0.01411345      -0.02176037      -0.08161926
Cu       2.50011357      10.00692624      15.39794822  T       0.02308977      -0.01533007      -0.08152318
Cu       5.00049659      10.03666550      15.36902173  T       0.01591174       0.00081172      -0.04785397
Cu       7.50990153      10.02877832      15.36474767  T      -0.00629257      -0.00502763      -0.05674542
Cu      10.01276218      10.03015098      15.37935949  T      -0.01130081      -0.00712133      -0.05691800
O        6.29931736       3.37779203      16.53445735  T      -0.07516821      -0.00760652       0.01878065
O        6.27840366       6.60071730      16.53319490  T      -0.07276966       0.00661762       0.02997757
O        9.03848763       6.43775310      16.58086122  T       0.04305618       0.10076442       0.09088546
O        9.05236931       3.57613619      16.58111330  T       0.03910576      -0.10893454       0.08739596
C        4.44612359       4.93420920      17.89729468  T      -0.06696450       0.01415385       0.11285963
O        5.43518855       4.96079552      18.63424594  T      -0.17909131       0.00063209       0.02018170
H        3.43047620       4.86775774      18.36051438  T       0.09245018       0.04490270      -0.04231574
C        1.06616907       5.12999439      16.99136302  T       0.01297327       0.02431732       0.39057334
O        1.16914287       5.18387338      18.16836949  T      -0.06851070      -0.03383489      -0.33192356
109
Lattice="12.51515363 0.0 0.0 0.0 12.51515363 0.0 0.0 0.0 25.30973" Properties=species:S:1:pos:R:3:move_mask:L:1:forces:R:3 energy=-453.57108588 stress="0.00807647923581535 3.214248624741885e-05 0.0005128996075287132 3.214248624741885e-05 0.008919034820808192 -5.9538772917787923e-05 0.0005128996075287132 -5.9538772917787923e-05 0.0031541476104405284" free_energy=-453.56943638 pbc="T T T"
Cu       1.25151999       1.25151999      10.00000011  F       0.00477941      -0.00294032      -0.06808693
Cu       3.75454997       1.25151999      10.00000011  F       0.00155666       0.00493119      -0.07358641
Cu       6.25757994       1.25151999      10.00000011  F       0.00734820       0.02605109      -0.05377769
Cu       8.76061004       1.25151999      10.00000011  F      -0.01076269       0.01305933      -0.04686870
Cu      11.26364002       1.25151999      10.00000011  F      -0.00536315      -0.00584488      -0.07223537
Cu       1.25151999       3.75454997      10.00000011  F       0.00295496       0.01315138      -0.06084261
Cu       3.75454997       3.75454997      10.00000011  F       0.00179345      -0.01216359      -0.05197279
Cu       6.25757994       3.75454997      10.00000011  F      -0.00282674      -0.02515775      -0.08235564
Cu       8.76061004       3.75454997      10.00000011  F      -0.00032087      -0.02050485      -0.08551137
Cu      11.26364002       3.75454997      10.00000011  F      -0.00098304       0.00901658      -0.05013755
Cu       1.25151999       6.25757994      10.00000011  F       0.00304525      -0.01089280      -0.06228728
Cu       3.75454997       6.25757994      10.00000011  F       0.00226472       0.01377688      -0.05116836
Cu       6.25757994       6.25757994      10.00000011  F      -0.00319938       0.02708133      -0.08487130
Cu       8.76061004       6.25757994      10.00000011  F      -0.00125370       0.02165435      -0.08592433
Cu      11.26364002       6.25757994      10.00000011  F      -0.00041173      -0.00672668      -0.05185956
Cu       1.25151999       8.76061004      10.00000011  F       0.00539646      -0.00183319      -0.06598952
Cu       3.75454997       8.76061004      10.00000011  F      -0.00018006      -0.00928172      -0.07345947
Cu       6.25757994       8.76061004      10.00000011  F       0.01040421      -0.02929081      -0.05092338
Cu       8.76061004       8.76061004      10.00000011  F      -0.01194752      -0.01517854      -0.04677221
Cu      11.26364002       8.76061004      10.00000011  F      -0.00619211       0.00044489      -0.06989138
Cu       1.25151999      11.26364002      10.00000011  F       0.00452421       0.00305520      -0.01014458
Cu       3.75454997      11.26364002      10.00000011  F      -0.00382280       0.00271666      -0.06225245
Cu       6.25757994      11.26364002      10.00000011  F       0.00065426       0.00110369      -0.07476416
Cu       8.76061004      11.26364002      10.00000011  F      -0.00584602       0.00111808      -0.07593378
Cu      11.26364002      11.26364002      10.00000011  F       0.00355509       0.00302850      -0.05878369
Cu       0.00000000       0.00000000      11.76991004  F       0.00859913       0.03543280       0.13838526
Cu       2.50302998       0.00000000      11.76991004  F       0.03570110       0.02991614       0.11987216
Cu       5.00605995       0.00000000      11.76991004  F       0.05761335       0.07730199       0.11147242
Cu       7.50909005       0.00000000      11.76991004  F       0.02221529       0.08665926       0.12598406
Cu      10.01212003       0.00000000      11.76991004  F      -0.02393425       0.05320577       0.09345071
Cu       0.00000000       2.50302998      11.76991004  F      -0.09697083       0.00436848       0.07184075
Cu       2.50302998       2.50302998      11.76991004  F       0.13411323       0.01039932       0.08735447
Cu       5.00605995       2.50302998      11.76991004  F      -0.00803452       0.00855416       0.17690139
Cu       7.50909005       2.50302998      11.76991004  F      -0.02416568      -0.01023044       0.13153102
Cu      10.01212003       2.50302998      11.76991004  F       0.11393937      -0.02273246       0.08880284
Cu       0.00000000       5.00605995      11.76991004  F      -0.13165551       0.00067348       0.06541202
Cu       2.50302998       5.00605995      11.76991004  F       0.13457559      -0.00195858       0.09335058
Cu       5.00605995       5.00605995      11.76991004  F      -0.02813281      -0.00090756       0.29970234
Cu       7.50909005       5.00605995      11.76991004  F      -0.05904333      -0.00205205       0.18977984
Cu      10.01212003       5.00605995      11.76991004  F       0.08575117       0.00007435       0.06741266
Cu       0.00000000       7.50909005      11.76991004  F      -0.10664490       0.00605319       0.06745353
Cu       2.50302998       7.50909005      11.76991004  F       0.13555825      -0.00341996       0.07999248
Cu       5.00605995       7.50909005      11.76991004  F      -0.01348631      -0.01739405       0.17742418
Cu       7.50909005       7.50909005      11.76991004  F      -0.02814362       0.00300865       0.13341380
Cu      10.01212003       7.50909005      11.76991004  F       0.10513615       0.02724358       0.08744729
Cu       0.00000000      10.01212003      11.76991004  F       0.00436778      -0.03384978       0.13822405
Cu       2.50302998      10.01212003      11.76991004  F       0.03235484      -0.03499763       0.12252406
Cu       5.00605995      10.01212003      11.76991004  F       0.05914706      -0.08388243       0.10886535