109
Lattice="12.51515363 0.0 0.0 0.0 12.51515363 0.0 0.0 0.0 25.30973" Properties=species:S:1:pos:R:3:move_mask:L:1:forces:R:3 energy=-452.7518006199999 stress="0.007838045061305142 -8.757473937545051e-05 0.0006202634572858699 -8.757473937545051e-05 0.00848905320014516 1.804195593964318e-06 0.0006202634572858699 1.804195593964318e-06 0.0031522279157201894" free_energy=-452.75462414 pbc="T T T"
Cu       1.25151999       1.25151999      10.00000011  F      -0.00330294      -0.01024201      -0.07579563
Cu       3.75454997       1.25151999      10.00000011  F       0.01085546       0.00545035      -0.04443093
Cu       6.25757994       1.25151999      10.00000011  F      -0.00793355       0.01332591      -0.05810781
Cu       8.76061004       1.25151999      10.00000011  F       0.02214400      -0.00006717      -0.05182213
Cu      11.26364002       1.25151999      10.00000011  F      -0.02186531      -0.00906030      -0.07391572
Cu       1.25151999       3.75454997      10.00000011  F      -0.00692985       0.00753296      -0.07093626
Cu       3.75454997       3.75454997      10.00000011  F       0.01522965      -0.00686863      -0.05330761
Cu       6.25757994       3.75454997      10.00000011  F      -0.01835094      -0.01971538      -0.09520234
Cu       8.76061004       3.75454997      10.00000011  F       0.02268560      -0.01279176      -0.08015310
Cu      11.26364002       3.75454997      10.00000011  F      -0.00837026      -0.00157959      -0.05480464
Cu       1.25151999       6.25757994      10.00000011  F       0.01200515      -0.00407613      -0.08146213
Cu       3.75454997       6.25757994      10.00000011  F       0.00724041       0.02160323      -0.04658412
Cu       6.25757994       6.25757994      10.00000011  F      -0.01509710       0.02424037      -0.08868514
Cu       8.76061004       6.25757994      10.00000011  F       0.02174063       0.02388657      -0.07120330
Cu      11.26364002       6.25757994      10.00000011  F      -0.02106873       0.01065219      -0.05851214
Cu       1.25151999       8.76061004      10.00000011  F       0.00849485      -0.00283252      -0.07203894
Cu       3.75454997       8.76061004      10.00000011  F      -0.00539139      -0.02588524      -0.06538129
Cu       6.25757994       8.76061004      10.00000011  F      -0.00203635      -0.01538587      -0.05639370
Cu       8.76061004       8.76061004      10.00000011  F       0.01167582      -0.02073757      -0.05717545
Cu      11.26364002       8.76061004      10.00000011  F      -0.01824989      -0.01776631      -0.08016504
Cu       1.25151999      11.26364002      10.00000011  F       0.00219963       0.00648609       0.00003596
Cu       3.75454997      11.26364002      10.00000011  F      -0.00557066       0.00395247      -0.07507529
Cu       6.25757994      11.26364002      10.00000011  F       0.00215665      -0.00130013      -0.06781325
Cu       8.76061004      11.26364002      10.00000011  F      -0.00174456       0.01393228      -0.07045729
Cu      11.26364002      11.26364002      10.00000011  F       0.00161935       0.01189274      -0.07738391
Cu       0.00000000       0.00000000      11.76991004  F      -0.01952626       0.03961754       0.15612446
Cu       2.50302998       0.00000000      11.76991004  F       0.02806392       0.02086428       0.13164893
Cu       5.00605995       0.00000000      11.76991004  F       0.00675223       0.05275357       0.10811727
Cu       7.50909005       0.00000000      11.76991004  F       0.03774267       0.02551295       0.09941200
Cu      10.01212003       0.00000000      11.76991004  F      -0.00472720       0.04281754       0.11682815
Cu       0.00000000       2.50302998      11.76991004  F      -0.03786219       0.00880591       0.09873549
Cu       2.50302998       2.50302998      11.76991004  F       0.06653155       0.01154833       0.11419241
Cu       5.00605995       2.50302998      11.76991004  F       0.11084872       0.07494450       0.24761708
Cu       7.50909005       2.50302998      11.76991004  F      -0.02789880       0.02761350       0.26196804
Cu      10.01212003       2.50302998      11.76991004  F       0.03289540      -0.09156335       0.06150263
Cu       0.00000000       5.00605995      11.76991004  F      -0.02868047       0.03431331       0.07039353
Cu       2.50302998       5.00605995      11.76991004  F       0.03852751       0.02399140       0.09280873
Cu       5.00605995       5.00605995      11.76991004  F       0.06435703      -0.03385678       0.25726852
Cu       7.50909005       5.00605995      11.76991004  F      -0.06193167      -0.03808011       0.19074477
Cu      10.01212003       5.00605995      11.76991004  F      -0.00261208      -0.00586031       0.07967750
Cu       0.00000000       7.50909005      11.76991004  F      -0.03414953      -0.01559355       0.14217852
Cu       2.50302998       7.50909005      11.76991004  F       0.07395879      -0.00552557       0.12567567
Cu       5.00605995       7.50909005      11.76991004  F      -0.03647461       0.03799805       0.07193429
Cu       7.50909005       7.50909005      11.76991004  F      -0.01860191       0.00596505       0.09941474
Cu      10.01212003       7.50909005      11.76991004  F       0.08017749       0.11149831       0.00104040
Cu       0.00000000      10.01212003      11.76991004  F      -0.00374793      -0.02186365       0.16094763
Cu       2.50302998      10.01212003      11.76991004  F       0.04971158      -0.05676267       0.15588511
Cu       5.00605995      10.01212003      11.76991004  F       0.01677020      -0.10315486       0.11601182
Cu       7.50909005      10.01212003      11.76991004  F       0.02870864      -0.07861541       0.08242111
Cu      10.01212003      10.01212003      11.76991004  F      -0.01604536      -0.06793157       0.15245293
Cu       1.27375917       1.24084156      13.59175072  T      -0.00338455      -0.01716085      -0.00116014
Cu       3.78835215       1.26723390      13.59962306  T      -0.00406706      -0.00886572      -0.01494409
Cu       6.30831500       1.25105205      13.60959079  T       0.00639625       0.00017254       0.00311839
Cu       8.75967979       1.26647010      13.62538609  T      -0.00735127      -0.00669581      -0.01087426
Cu      11.26924093       1.27099270      13.61115493  T       0.00818428      -0.01311739      -0.01853640
Cu       1.25929466       3.75342423      13.57974581  T       0.00597692       0.00770512       0.00141079
Cu       3.76590259       3.78591019      13.60633039  T      -0.00260078       0.00500753       0.00331805
Cu       6.30166933       3.81285694      13.62442609  T      -0.01358927       0.00257123      -0.11486574
Cu       8.76943410       3.73194910      13.58470550  T       0.00698656      -0.00172352      -0.04655184
Cu      11.24492724       3.76917593      13.58487533  T       0.00025498      -0.00804573       0.00045453
Cu       1.25569768       6.24839745      13.58597529  T       0.00360782      -0.00956253       0.00752661
Cu       3.77021894       6.24811223      13.61438774  T      -0.00948874      -0.01406950      -0.00578588
Cu       6.23635149       6.26670499      13.60277842  T      -0.00369912       0.00552301      -0.05991284
Cu       8.73645067       6.24048074      13.54759258  T       0.00211369      -0.00263049      -0.06955639
Cu      11.22574989       6.28290398      13.59699009  T      -0.00413231       0.00365015      -0.00186076
Cu       1.28417904       8.75756711      13.59538444  T      -0.00940363       0.02254110      -0.00178837
Cu       3.80270127       8.74395913      13.62850323  T      -0.00337241       0.01536126      -0.01947692
Cu       6.29384460       8.72821419      13.61078667  T      -0.00700810       0.00261090      -0.00314371
Cu       8.78590480       8.71553271      13.61901158  T       0.00902957       0.00317049      -0.01389066
Cu      11.28115385       8.76685498      13.61769724  T       0.00771359       0.01387300      -0.01346781
Cu       1.23879859      11.25601078      13.61586406  T      -0.01712045      -0.00246748      -0.01568184
Cu       3.73470732      11.26524071      13.58945994  T      -0.01440514      -0.00404780      -0.00284409
Cu       6.24456368      11.24823086      13.57158013  T      -0.00939479      -0.00502366      -0.00608266
Cu       8.75253001      11.25141109      13.57909712  T       0.00297925       0.00214838      -0.00569957
Cu      11.25896010      11.27981323      13.59508275  T       0.02157472      -0.00460745      -0.00141167
Cu      12.47735624       0.01128366      15.40478589  T      -0.00143544       0.00796356      -0.08462546
Cu       2.47863519      12.50409674      15.40079075  T       0.00163241       0.00962556      -0.08263306
Cu       4.97754492       0.02514094      15.37476121  T       0.00327171       0.00568751      -0.04048103
Cu       7.47069043      12.32951986      15.39728055  T      -0.01552961       0.02189988      -0.04192939
Cu       9.96692167       0.02768302      15.38865626  T      -0.02612719       0.00943431      -0.04814764
Cu       0.13180760       2.51483164      15.37869283  T       0.02230468       0.01727756      -0.03281116
Cu       2.59847692       2.48942175      15.37799479  T       0.00260293       0.00455652      -0.03808928
Cu       5.08413048       2.47785224      15.39454785  T      -0.04099679      -0.06650293      -0.06020511
Cu       7.69995553       2.10359746      15.86570974  T       0.06435431      -0.03714488      -0.03842723
Cu      10.18008553       2.48699619      15.44464214  T       0.03941539      -0.04636795      -0.08695190
Cu      12.39609560       5.01006342      15.34090464  T       0.00919525      -0.00576827      -0.05720963
Cu       2.22563460       4.98265837      15.49575868  T      -0.00247910      -0.00783044      -0.01111506
Pd       4.62512984       5.03466208      15.91104225  T      -0.05671682       0.00522649       0.04823434
Y        7.57902060       4.95857120      17.17389350  T      -0.03209767      -0.02149959       0.10028020
Cu       9.96436983       5.06710975      15.41168811  T       0.09892154       0.02733198      -0.15306976
Cu       0.09760956       7.50013821      15.38398332  T       0.01423084      -0.01391501      -0.05003145
Cu       2.57566980       7.48042572      15.38580689  T      -0.01463379      -0.00454303      -0.04980908
Cu       5.06817028       7.61379383      15.49613124  T      -0.05219568       0.04668007      -0.09621729
Cu       7.60099733       7.44742589      15.47968422  T       0.01868125       0.10172046      -0.14409948
Cu      10.14352288       7.60466778      15.48914905  T       0.04056487       0.04772492      -0.09458249
Cu      12.50917777      10.00410419      15.40662844  T       0.01088829      -0.00057768      -0.08977737
Cu       2.51180798       9.99023565      15.40254877  T      -0.00284708      -0.00298663      -0.08262667
Cu       5.01710608      10.08619972      15.38349763  T       0.02134745       0.00455655      -0.04984963
Cu       7.51504952       9.93142907      15.36231060  T      -0.00528757      -0.00203361      -0.05108566
Cu      10.01201965      10.07221930      15.38464213  T      -0.01832969       0.01028926      -0.05648870
O        6.55372490       3.84198146      15.61758074  T      -0.02080009      -0.00052701       0.02446573
O        6.22748188       6.62156479      16.64899678  T      -0.12541737      -0.01502123       0.11058487
O        9.03475836       6.47050664      16.56526941  T       0.07731706       0.09246820       0.11266827
O        9.21186719       3.66367556      16.54484193  T       0.07078314      -0.13170907       0.05558342
C        7.38393176       1.85248929      17.78222298  T      -0.05529341      -0.15058618       0.28577802
O        7.23767930       2.90492460      18.44261509  T      -0.06347992      -0.10387056      -0.03859689
H        7.41175807       0.90598999      18.39624488  T      -0.04820534       0.24771403      -0.16460401
C        3.77168509       4.86354088      17.61131600  T      -0.02964092      -0.04110424      -0.67298500
O        3.67810904       4.91061701      18.76579529  T      -0.19472108       0.01143172       0.52233130
109
Lattice="12.51515363 0.0 0.0 0.0 12.51515363 0.0 0.0 0.0 25.30973" Properties=species:S:1:pos:R:3:move_mask:L:1:forces:R:3 energy=-452.75598955 stress="0.007793405875417952 -8.825083836849355e-05 0.0005983138173126936 -8.825083836849355e-05 0.008406716366435698 1.6741375234028133e-05 0.0005983138173126936 1.6741375234028133e-05 0.0033967862465016942" free_energy=-452.75876809 pbc="T T T"
Cu       1.25151999       1.25151999      10.00000011  F      -0.00327038      -0.01015775      -0.07561805
Cu       3.75454997       1.25151999      10.00000011  F       0.01074696       0.00542028      -0.04425148
Cu       6.25757994       1.25151999      10.00000011  F      -0.00807433       0.01338769      -0.05821598
Cu       8.76061004       1.25151999      10.00000011  F       0.02202935       0.00001318      -0.05196987
Cu      11.26364002       1.25151999      10.00000011  F      -0.02192579      -0.00902284      -0.07386395
Cu       1.25151999       3.75454997      10.00000011  F      -0.00712879       0.00741511      -0.07093557
Cu       3.75454997       3.75454997      10.00000011  F       0.01517521      -0.00692426      -0.05355235
Cu       6.25757994       3.75454997      10.00000011  F      -0.01838009      -0.01978844      -0.09560916
Cu       8.76061004       3.75454997      10.00000011  F       0.02251028      -0.01289185      -0.08027977
Cu      11.26364002       3.75454997      10.00000011  F      -0.00830252      -0.00163152      -0.05469535
Cu       1.25151999       6.25757994      10.00000011  F       0.01192139      -0.00395589      -0.08158831
Cu       3.75454997       6.25757994      10.00000011  F       0.00708762       0.02168426      -0.04690374
Cu       6.25757994       6.25757994      10.00000011  F      -0.01517566       0.02419294      -0.08906967
Cu       8.76061004       6.25757994      10.00000011  F       0.02165038       0.02390460      -0.07135091
Cu      11.26364002       6.25757994      10.00000011  F      -0.02103360       0.01072619      -0.05854091
Cu       1.25151999       8.76061004      10.00000011  F       0.00849983      -0.00297936      -0.07199987
Cu       3.75454997       8.76061004      10.00000011  F      -0.00558741      -0.02589841      -0.06552242
Cu       6.25757994       8.76061004      10.00000011  F      -0.00211080      -0.01525767      -0.05662369
Cu       8.76061004       8.76061004      10.00000011  F       0.01156930      -0.02074729      -0.05752422
Cu      11.26364002       8.76061004      10.00000011  F      -0.01829546      -0.01782706      -0.08026214
Cu       1.25151999      11.26364002      10.00000011  F       0.00222818       0.00663332       0.00014746
Cu       3.75454997      11.26364002      10.00000011  F      -0.00570069       0.00414385      -0.07491214
Cu       6.25757994      11.26364002      10.00000011  F       0.00201151      -0.00125370      -0.06794541
Cu       8.76061004      11.26364002      10.00000011  F      -0.00179315       0.01405478      -0.07058701
Cu      11.26364002      11.26364002      10.00000011  F       0.00147049       0.01201691      -0.07730328
Cu       0.00000000       0.00000000      11.76991004  F      -0.01943614       0.03975431       0.15474183
Cu       2.50302998       0.00000000      11.76991004  F       0.02802836       0.02097587       0.13054385
Cu       5.00605995       0.00000000      11.76991004  F       0.00647217       0.05268878       0.10764849
Cu       7.50909005       0.00000000      11.76991004  F       0.03735574       0.02537557       0.09912653
Cu      10.01212003       0.00000000      11.76991004  F      -0.00456721       0.04273466       0.11612096
Cu       0.00000000       2.50302998      11.76991004  F      -0.03760953       0.00884281       0.09814820
Cu       2.50302998       2.50302998      11.76991004  F       0.06599557       0.01122018       0.11381043
Cu       5.00605995       2.50302998      11.76991004  F       0.11016325       0.07400081       0.24645768
Cu       7.50909005       2.50302998      11.76991004  F      -0.02758603       0.02649560       0.26030307
Cu      10.01212003       2.50302998      11.76991004  F       0.03327403      -0.09203321       0.06044616
Cu       0.00000000       5.00605995      11.76991004  F      -0.02882327       0.03423452       0.06978943
Cu       2.50302998       5.00605995      11.76991004  F       0.03789505       0.02378586       0.09222356
Cu       5.00605995       5.00605995      11.76991004  F       0.06288643      -0.03358702       0.25559030
Cu       7.50909005       5.00605995      11.76991004  F      -0.06131218      -0.03800326       0.18734924
Cu      10.01212003       5.00605995      11.76991004  F      -0.00159064      -0.00623549       0.07806504
Cu       0.00000000       7.50909005      11.76991004  F      -0.03396234      -0.01570625       0.14175482
Cu       2.50302998       7.50909005      11.76991004  F       0.07331754      -0.00526153       0.12521114
Cu       5.00605995       7.50909005      11.76991004  F      -0.03718028       0.03869004       0.07044793
Cu       7.50909005       7.50909005      11.76991004  F      -0.01867982       0.00712889       0.09734099
Cu      10.01212003       7.50909005      11.76991004  F       0.08077324       0.11204000      -0.00055355
Cu       0.00000000      10.01212003      11.76991004  F      -0.00366230      -0.02175891       0.15930159
Cu       2.50302998      10.01212003      11.76991004  F       0.04959746      -0.05654115       0.15469902
Cu       5.00605995      10.01212003      11.76991004  F       0.01648267      -0.10280429       0.11502554
Cu       7.50909005      10.01212003      11.76991004  F       0.02842842      -0.07829504       0.08168109
Cu      10.01212003      10.01212003      11.76991004  F      -0.01589931      -0.06766696       0.15171749
Cu       1.27372651       1.24067599      13.59173958  T      -0.00295732      -0.01439729      -0.00350255
Cu       3.78831285       1.26714829      13.59947905  T      -0.00443714      -0.00839371      -0.01690303
Cu       6.30837670       1.25105368      13.60962091  T       0.00599737       0.00047087       0.00051704
Cu       8.75960896       1.26640552      13.62528130  T      -0.00660320      -0.00567884      -0.01319764
Cu      11.26931990       1.27086617      13.61097599  T       0.00785214      -0.01248576      -0.02079299
Cu       1.25935235       3.75349857      13.57975948  T       0.00547679       0.00662499      -0.00114437
Cu       3.76587743       3.78595850      13.60636253  T      -0.00237545       0.00389127      -0.00021226
Cu       6.30153829       3.81288172      13.62331777  T      -0.01276694       0.00090000      -0.10234409
Cu       8.76950143       3.73193246      13.58425626  T       0.00560462      -0.00178668      -0.04309329
Cu      11.24492974       3.76909833      13.58487963  T       0.00128815      -0.00834581      -0.00344547
Cu       1.25573247       6.24830521      13.58604768  T       0.00335798      -0.00892064       0.00447545
Cu       3.77012746       6.24797657      13.61433206  T      -0.00857211      -0.01248081      -0.00826342
Cu       6.23631582       6.26675831      13.60220035  T      -0.00305625       0.00529136      -0.05610834
Cu       8.73647107       6.24045533      13.54692137  T       0.00151283      -0.00239172      -0.06430419
Cu      11.22570997       6.28293915      13.59697212  T      -0.00259757       0.00477692      -0.00634435
Cu       1.28408830       8.75778462      13.59536723  T      -0.00844246       0.01962515      -0.00477162
Cu       3.80266873       8.74410744      13.62831518  T      -0.00424144       0.01411745      -0.02135827
Cu       6.29377702       8.72823935      13.61075630  T      -0.00652045       0.00300409      -0.00654485
Cu       8.78599190       8.71556338      13.61887744  T       0.00876430       0.00383803      -0.01687471
Cu      11.28122832       8.76698877      13.61756740  T       0.00753332       0.01290502      -0.01622015
Cu       1.23863339      11.25598700      13.61571296  T      -0.01503038      -0.00174433      -0.01770769
Cu       3.73456840      11.26520166      13.58943260  T      -0.01313605      -0.00324469      -0.00502076
Cu       6.24447295      11.24818243      13.57152166  T      -0.00879616      -0.00413414      -0.00817484
Cu       8.75255880      11.25143186      13.57904220  T       0.00227278       0.00247120      -0.00772642
Cu      11.25916823      11.27976880      13.59506908  T       0.01848854      -0.00375678      -0.00375920
Cu      12.47734235       0.01136051      15.40396940  T      -0.00183156       0.00793951      -0.07994775
Cu       2.47865096      12.50418960      15.39999324  T       0.00155878       0.00880318      -0.07853824
Cu       4.97757646       0.02519576      15.37437043  T       0.00299893       0.00339577      -0.03859076
Cu       7.47054050      12.32973124      15.39687610  T      -0.01557665       0.01957319      -0.03951500
Cu       9.96666962       0.02777400      15.38819182  T      -0.02492683       0.00771207      -0.04586115
Cu       0.13202286       2.51499834      15.37837646  T       0.02098480       0.01593137      -0.03185389
Cu       2.59850195       2.48946568      15.37762729  T       0.00079806       0.00307061      -0.03585405
Cu       5.08373500       2.47721059      15.39396700  T      -0.03273455      -0.05829546      -0.05684153
Cu       7.70057653       2.10323915      15.86533895  T       0.05865684      -0.03419611      -0.01477040
Cu      10.18046586       2.48654877      15.44380312  T       0.03457785      -0.03970111      -0.07907491
Cu      12.39618433       5.01000773      15.34035264  T       0.01119192      -0.00557035      -0.05484774
Cu       2.22561069       4.98258277      15.49565137  T      -0.00328443      -0.00879080      -0.00137476
Pd       4.62458267       5.03471252      15.91150744  T      -0.00510780       0.01044676       0.01309497
Y        7.57871085       4.95836382      17.17486109  T      -0.02001060      -0.00919232       0.08308052
Cu       9.96532424       5.06737344      15.41021129  T       0.07782954       0.02039784      -0.12863705
Cu       0.09774685       7.50000392      15.38350041  T       0.01323910      -0.01292691      -0.04793079
Cu       2.57552863       7.48038191      15.38532625  T      -0.01591242      -0.00220494      -0.04817766
Cu       5.06766667       7.61424425      15.49520288  T      -0.04164102       0.03719101      -0.08546504
Cu       7.60117755       7.44840732      15.47829370  T       0.01189288       0.08102260      -0.12163584
Cu      10.14391423       7.60512821      15.48823663  T       0.03234729       0.03910284      -0.08343779
Cu      12.50928290      10.00409856      15.40576209  T       0.00954148      -0.00049510      -0.08442481
Cu       2.51178045       9.99020687      15.40175151  T      -0.00205270      -0.00208108      -0.07813615
Cu       5.01731207      10.08624378      15.38301674  T       0.01947797       0.00585292      -0.04744853
Cu       7.51499845       9.93140942      15.36181782  T      -0.00493086       0.00183742      -0.04884234
Cu      10.01184281      10.07231867      15.38409696  T      -0.01684488       0.01097575      -0.05387217
O        6.55352415       3.84197633      15.61781688  T      -0.02114716      -0.00147469       0.02177644
O        6.22627179       6.62141986      16.65006359  T      -0.11459758      -0.01214265       0.09297245
O        9.03550439       6.47139884      16.56635646  T       0.07003678       0.08426783       0.09994049
O        9.21255014       3.66240477      16.54537824  T       0.06445433      -0.11696875       0.04822165
C        7.38339823       1.85103640      17.78498023  T      -0.04591555      -0.07860714       0.12937043
O        7.23706680       2.90392238      18.44224278  T      -0.06947570      -0.05542036       0.00424438
H        7.41129301       0.90838001      18.39465670  T      -0.04554948       0.13167067      -0.07958496
C        3.77139912       4.86314440      17.60482278  T      -0.16363632      -0.00483487       0.46595020
O        3.67623026       4.91072739      18.77083496  T      -0.09350907      -0.03177573      -0.58917923
109
Lattice="12.51515363 0.0 0.0 0.0 12.51515363 0.0 0.0 0.0 25.30973" Properties=species:S:1:pos:R:3:move_mask:L:1:forces:R:3 energy=-452.76960575 stress="0.007883081294553866 -8.649296725526156e-05 0.0006038496738998228 -8.649296725526156e-05 0.008490525129000809 1.996497738434607e-05 0.0006038496738998228 1.996497738434607e-05 0.0033662768760830994" free_energy=-452.77240255 pbc="T T T"
Cu       1.25151999       1.25151999      10.00000011  F      -0.00300190      -0.00995317      -0.07579409
Cu       3.75454997       1.25151999      10.00000011  F       0.01095666       0.00562642      -0.04424212
Cu       6.25757994       1.25151999      10.00000011  F      -0.00800410       0.01362382      -0.05829031
Cu       8.76061004       1.25151999      10.00000011  F       0.02203436       0.00038928      -0.05239066
Cu      11.26364002       1.25151999      10.00000011  F      -0.02181093      -0.00858253      -0.07432609
Cu       1.25151999       3.75454997      10.00000011  F      -0.00700083       0.00734496      -0.07098076
Cu       3.75454997       3.75454997      10.00000011  F       0.01541365      -0.00706874      -0.05360408
Cu       6.25757994       3.75454997      10.00000011  F      -0.01821695      -0.01972605      -0.09570818
Cu       8.76061004       3.75454997      10.00000011  F       0.02263559      -0.01275897      -0.08037272
Cu      11.26364002       3.75454997      10.00000011  F      -0.00830433      -0.00154123      -0.05478352
Cu       1.25151999       6.25757994      10.00000011  F       0.01195559      -0.00430858      -0.08158402
Cu       3.75454997       6.25757994      10.00000011  F       0.00736862       0.02136337      -0.04685335
Cu       6.25757994       6.25757994      10.00000011  F      -0.01485863       0.02391715      -0.08884907
Cu       8.76061004       6.25757994      10.00000011  F       0.02174584       0.02361066      -0.07107990
Cu      11.26364002       6.25757994      10.00000011  F      -0.02113240       0.01037607      -0.05839381
Cu       1.25151999       8.76061004      10.00000011  F       0.00867428      -0.00298383      -0.07216676
Cu       3.75454997       8.76061004      10.00000011  F      -0.00530583      -0.02587753      -0.06540024
Cu       6.25757994       8.76061004      10.00000011  F      -0.00197014      -0.01541850      -0.05638361
Cu       8.76061004       8.76061004      10.00000011  F       0.01160557      -0.02107320      -0.05734674
Cu      11.26364002       8.76061004      10.00000011  F      -0.01828989      -0.01810581      -0.08025149
Cu       1.25151999      11.26364002      10.00000011  F       0.00255600       0.00680247      -0.00020420
Cu       3.75454997      11.26364002      10.00000011  F      -0.00553220       0.00423425      -0.07491065
Cu       6.25757994      11.26364002      10.00000011  F       0.00202418      -0.00119837      -0.06790905
Cu       8.76061004      11.26364002      10.00000011  F      -0.00188243       0.01407770      -0.07089148
Cu      11.26364002      11.26364002      10.00000011  F       0.00165919       0.01203661      -0.07776955
Cu       0.00000000       0.00000000      11.76991004  F      -0.01907577       0.03992286       0.15446101
Cu       2.50302998       0.00000000      11.76991004  F       0.02837149       0.02099869       0.13049573
Cu       5.00605995       0.00000000      11.76991004  F       0.00656133       0.05267863       0.10770598
Cu       7.50909005       0.00000000      11.76991004  F       0.03710891       0.02534172       0.09893031
Cu      10.01212003       0.00000000      11.76991004  F      -0.00455633       0.04262521       0.11604571
Cu       0.00000000       2.50302998      11.76991004  F      -0.03714460       0.00922083       0.09812520
Cu       2.50302998       2.50302998      11.76991004  F       0.06620887       0.01147295       0.11401813
Cu       5.00605995       2.50302998      11.76991004  F       0.10987761       0.07389738       0.24609759
Cu       7.50909005       2.50302998      11.76991004  F      -0.02753015       0.02645663       0.25936074
Cu      10.01212003       2.50302998      11.76991004  F       0.03355478      -0.09172369       0.05978149
Cu       0.00000000       5.00605995      11.76991004  F      -0.02872509       0.03425132       0.06987923
Cu       2.50302998       5.00605995      11.76991004  F       0.03817119       0.02370783       0.09207282
Cu       5.00605995       5.00605995      11.76991004  F       0.06256639      -0.03322757       0.25442557
Cu       7.50909005       5.00605995      11.76991004  F      -0.06115427      -0.03761555       0.18588931
Cu      10.01212003       5.00605995      11.76991004  F      -0.00111598      -0.00619566       0.07727777
Cu       0.00000000       7.50909005      11.76991004  F      -0.03372483      -0.01614885       0.14194976
Cu       2.50302998       7.50909005      11.76991004  F       0.07340549      -0.00550649       0.12557367
Cu       5.00605995       7.50909005      11.76991004  F      -0.03712207       0.03855799       0.07043771
Cu       7.50909005       7.50909005      11.76991004  F      -0.01876900       0.00721150       0.09692383
Cu      10.01212003       7.50909005      11.76991004  F       0.08098876       0.11178688      -0.00092306
Cu       0.00000000      10.01212003      11.76991004  F      -0.00349305      -0.02199540       0.15890386
Cu       2.50302998      10.01212003      11.76991004  F       0.04985945      -0.05662808       0.15457899
Cu       5.00605995      10.01212003      11.76991004  F       0.01663327      -0.10294568       0.11497483