109
Lattice="12.51515363 0.0 0.0 0.0 12.51515363 0.0 0.0 0.0 25.30973" Properties=species:S:1:pos:R:3:move_mask:L:1:forces:R:3 energy=-453.43921338 stress="0.00784338791794708 0.00011684812870788334 0.00018979248982435283 0.00011684812870788334 0.008852857291674694 -0.00020288957270996023 0.00018979248982435283 -0.00020288957270996023 0.0029778110590689753" free_energy=-453.4408377 pbc="T T T"
Cu       1.25151999       1.25151999      10.00000011  F       0.00502954      -0.00193075      -0.05855375
Cu       3.75454997       1.25151999      10.00000011  F       0.00459700       0.01451106      -0.06405767
Cu       6.25757994       1.25151999      10.00000011  F       0.00334600       0.02896975      -0.05999805
Cu       8.76061004       1.25151999      10.00000011  F      -0.00259802       0.01128212      -0.05760721
Cu      11.26364002       1.25151999      10.00000011  F      -0.01215173       0.00588610      -0.07414252
Cu       1.25151999       3.75454997      10.00000011  F       0.00750016       0.00638213      -0.07804295
Cu       3.75454997       3.75454997      10.00000011  F       0.01000159      -0.01456682      -0.05920982
Cu       6.25757994       3.75454997      10.00000011  F      -0.00221978      -0.03727020      -0.07704377
Cu       8.76061004       3.75454997      10.00000011  F       0.00351801      -0.02264786      -0.07687159
Cu      11.26364002       3.75454997      10.00000011  F      -0.01626264      -0.01183514      -0.04230767
Cu       1.25151999       6.25757994      10.00000011  F       0.00975281      -0.00522160      -0.06686850
Cu       3.75454997       6.25757994      10.00000011  F       0.01059359       0.01466298      -0.04639465
Cu       6.25757994       6.25757994      10.00000011  F      -0.01021975       0.02824837      -0.07913475
Cu       8.76061004       6.25757994      10.00000011  F       0.00542518       0.01937090      -0.07698203
Cu      11.26364002       6.25757994      10.00000011  F      -0.01138634       0.00192724      -0.05530540
Cu       1.25151999       8.76061004      10.00000011  F       0.00731021       0.01038396      -0.05642438
Cu       3.75454997       8.76061004      10.00000011  F      -0.00555710      -0.01299184      -0.05651946
Cu       6.25757994       8.76061004      10.00000011  F      -0.00136267      -0.03537059      -0.04594183
Cu       8.76061004       8.76061004      10.00000011  F       0.00574099      -0.02024844      -0.05090584
Cu      11.26364002       8.76061004      10.00000011  F      -0.00746628      -0.00320086      -0.06908675
Cu       1.25151999      11.26364002      10.00000011  F       0.01460427      -0.01063349      -0.01329303
Cu       3.75454997      11.26364002      10.00000011  F      -0.01545017      -0.00185392      -0.07290190
Cu       6.25757994      11.26364002      10.00000011  F       0.00583752       0.01631197      -0.06474124
Cu       8.76061004      11.26364002      10.00000011  F      -0.00349600       0.00983154      -0.06270010
Cu      11.26364002      11.26364002      10.00000011  F      -0.00628527       0.00518380      -0.05313697
Cu       0.00000000       0.00000000      11.76991004  F       0.00099826       0.05524053       0.15813177
Cu       2.50302998       0.00000000      11.76991004  F       0.04076422       0.04481041       0.12076345
Cu       5.00605995       0.00000000      11.76991004  F       0.05777800       0.08610211       0.11787529
Cu       7.50909005       0.00000000      11.76991004  F       0.02676938       0.04499167       0.10323012
Cu      10.01212003       0.00000000      11.76991004  F       0.00747174       0.06282065       0.10449538
Cu       0.00000000       2.50302998      11.76991004  F      -0.08300012      -0.01560494       0.08458036
Cu       2.50302998       2.50302998      11.76991004  F       0.09851578       0.01648670       0.11858820
Cu       5.00605995       2.50302998      11.76991004  F       0.00966255      -0.03655328       0.13635541
Cu       7.50909005       2.50302998      11.76991004  F      -0.01568404      -0.01389347       0.13413437
Cu      10.01212003       2.50302998      11.76991004  F       0.07885855      -0.06549742       0.05127184
Cu       0.00000000       5.00605995      11.76991004  F      -0.07695606       0.05606998       0.10215438
Cu       2.50302998       5.00605995      11.76991004  F       0.06547012       0.03943923       0.11520901
Cu       5.00605995       5.00605995      11.76991004  F      -0.06498156       0.02246843       0.29503549
Cu       7.50909005       5.00605995      11.76991004  F      -0.05809733      -0.02116484       0.15921086
Cu      10.01212003       5.00605995      11.76991004  F       0.02998510      -0.00830837       0.04109992
Cu       0.00000000       7.50909005      11.76991004  F      -0.07757936      -0.00016317       0.10265215
Cu       2.50302998       7.50909005      11.76991004  F       0.07887053      -0.03777315       0.13405715
Cu       5.00605995       7.50909005      11.76991004  F      -0.05068260      -0.00420725       0.15285160
Cu       7.50909005       7.50909005      11.76991004  F      -0.01915489      -0.01016968       0.12033955
Cu      10.01212003       7.50909005      11.76991004  F       0.04665255       0.07070987       0.04504925
Cu       0.00000000      10.01212003      11.76991004  F       0.02250417      -0.05932900       0.16327369
Cu       2.50302998      10.01212003      11.76991004  F       0.03161888      -0.05201988       0.09777027
Cu       5.00605995      10.01212003      11.76991004  F       0.02028876      -0.13825642       0.14170175
Cu       7.50909005      10.01212003      11.76991004  F       0.02507192      -0.09531529       0.11976035
Cu      10.01212003      10.01212003      11.76991004  F      -0.02778137      -0.07975837       0.12369432
Cu       1.28022500       1.25209306      13.58978744  T      -0.00973099      -0.02590606       0.00246164
Cu       3.79684868       1.26546951      13.60853411  T      -0.00944172      -0.01001690      -0.00989221
Cu       6.30034760       1.26688009      13.61372463  T      -0.00291648      -0.00682017      -0.00065440
Cu       8.78764528       1.27099870      13.61145232  T       0.00060836      -0.01257888      -0.01385792
Cu      11.27901989       1.26704454      13.61767624  T       0.01000236      -0.01814648      -0.02036092
Cu       1.23775808       3.75478738      13.55776810  T      -0.01047675      -0.00113827      -0.00993231
Cu       3.78287727       3.77560634      13.61775141  T      -0.01615039       0.00603994      -0.01768325
Cu       6.26346207       3.76795145      13.60887301  T      -0.00251063       0.01240158      -0.03316751
Cu       8.74749717       3.76337991      13.56231399  T      -0.00166984       0.00040874      -0.05850261
Cu      11.22290545       3.75774609      13.60753665  T       0.00490058       0.00198663      -0.01169440
Cu       1.24152289       6.28150041      13.58061191  T      -0.00824095      -0.00398115      -0.00484657
Cu       3.75036215       6.24586463      13.64966419  T      -0.00903792      -0.00311148      -0.00600282
Cu       6.24577302       6.21252451      13.60092752  T      -0.01092103      -0.01286422      -0.02941933
Cu       8.73683376       6.23911659      13.55950207  T       0.00004779      -0.00257333      -0.04828189
Cu      11.21170126       6.25315721      13.60762372  T       0.00657508      -0.00450512      -0.00288615
Cu       1.28281714       8.76256353      13.60388319  T      -0.01875911       0.02131431      -0.00376866
Cu       3.77040692       8.72822671      13.62370198  T       0.00994083       0.01077631      -0.01098584
Cu       6.28653050       8.71360225      13.61455175  T       0.00635109       0.01347221      -0.00701129
Cu       8.77294373       8.72601929      13.62033173  T      -0.00504695       0.01497845      -0.00479883
Cu      11.26406916       8.75017078      13.61193523  T       0.01273771       0.00548186      -0.01132452
Cu       1.24891847      11.26711385      13.60832125  T      -0.02017497       0.00310305      -0.01668769
Cu       3.74181092      11.25791371      13.57766029  T      -0.00856483      -0.00247658       0.00516840
Cu       6.25952680      11.25190581      13.57113848  T      -0.00337919      -0.00258054      -0.01379084
Cu       8.76712981      11.25698659      13.58091967  T      -0.00895674       0.01177715      -0.01313752
Cu      11.26918874      11.26772572      13.58823444  T       0.02185271       0.01235958      -0.00106131
Cu      12.51343392       0.00723851      15.40322226  T      -0.00829905       0.01517042      -0.08520262
Cu       2.50521888       0.03300321      15.39824206  T       0.02166844       0.01272081      -0.08400740
Cu       5.00223945      12.45331738      15.36605188  T       0.00562411      -0.00462075      -0.04501339
Cu       7.51312519      12.47366001      15.36283704  T      -0.00590579       0.00625853      -0.06413318
Cu      10.01581250      12.50220796      15.38214406  T      -0.00533875      -0.00239588      -0.06288195
Cu       0.10142881       2.51245001      15.37890518  T       0.01451906       0.00959612      -0.04405645
Cu       2.56729541       2.52950591      15.37565060  T       0.01273178       0.02156243      -0.04272363
Cu       5.03525467       2.39563281      15.45879736  T      -0.06473912      -0.03622214      -0.08863709
Cu       7.64633198       2.47988508      15.45257547  T       0.05701613      -0.06471826      -0.12413197
Cu      10.15397278       2.46518140      15.48337185  T       0.04446741      -0.05412465      -0.07002594
Cu      12.40291898       5.00505874      15.35223302  T       0.00368346       0.00581494      -0.05329325
Cu       2.27526669       4.99108507      15.37706339  T      -0.00720934      -0.00469543      -0.02220275
Pd       4.69620940       4.94647881      15.85652433  T      -0.07220445      -0.00701674      -0.04657394
Y        7.49939444       4.97171887      17.29207880  T      -0.10417642       0.00773633       0.10088572
Cu       9.92148553       5.00480343      15.46653025  T       0.10037231      -0.00189270      -0.14877903
Cu       0.03345025       7.50237842      15.36036074  T       0.01485471      -0.01447366      -0.03913227
Cu       2.52539405       7.51485728      15.50744520  T       0.01861966      -0.02533760       0.00135344
Cu       5.03558307       7.53993014      15.44453736  T      -0.04975883       0.05824497      -0.09564391
Cu       7.59868854       7.47152945      15.46196893  T       0.06333994       0.10458273      -0.11862130
Cu      10.10260384       7.55107376      15.48717615  T       0.03400632       0.06220662      -0.08816982
Cu      12.51371314      10.00809553      15.39016598  T      -0.00722036      -0.00811952      -0.07664004
Cu       2.50745383      10.05693879      15.39667488  T       0.02890459      -0.00524651      -0.06122065
Cu       5.01197874      10.01614277      15.35439220  T      -0.00308170       0.00158361      -0.04806088
Cu       7.51338137      10.01200351      15.36382311  T      -0.00047551      -0.00822894      -0.06761386
Cu      10.01916343      10.03181713      15.37952096  T      -0.01496450      -0.01163722      -0.05393552
O        6.29759177       3.33501036      16.53711259  T      -0.04112312      -0.02239558       0.03445689
O        6.25114828       6.56553507      16.54898336  T      -0.06006570       0.00439293       0.05181253
O        9.01555023       6.41859728      16.58753084  T       0.06108992       0.10368068       0.10919349
O        9.04906356       3.56574724      16.59057433  T       0.05490765      -0.11987085       0.08634089
C        4.38479508       4.81531574      17.81165997  T      -0.41038142      -0.01573426       0.06427420
O        5.33012308       4.87468137      18.59310472  T       0.04696776       0.00946642       0.14631786
H        3.34947437       4.65982835      18.21877786  T       0.26025706       0.06066562      -0.08049041
C        2.74460923       7.67407995      17.34026499  T      -0.13949938       0.01115607      -0.70257396
O        2.92753297       7.73770023      18.47616440  T       0.05821081       0.04818536       0.63613485
109
Lattice="12.51515363 0.0 0.0 0.0 12.51515363 0.0 0.0 0.0 25.30973" Properties=species:S:1:pos:R:3:move_mask:L:1:forces:R:3 energy=-453.44208792999996 stress="0.00783486976219395 0.00011699291923658558 0.000289337825793844 0.00011699291923658558 0.0088191762422202 -0.00018149968375821154 0.000289337825793844 -0.00018149968375821154 0.003305906203621468" free_energy=-453.44367212 pbc="T T T"
Cu       1.25151999       1.25151999      10.00000011  F       0.00472903      -0.00207908      -0.05849327
Cu       3.75454997       1.25151999      10.00000011  F       0.00421316       0.01446320      -0.06422753
Cu       6.25757994       1.25151999      10.00000011  F       0.00327968       0.02893703      -0.06037580
Cu       8.76061004       1.25151999      10.00000011  F      -0.00235919       0.01110782      -0.05763850
Cu      11.26364002       1.25151999      10.00000011  F      -0.01213426       0.00516051      -0.07442410
Cu       1.25151999       3.75454997      10.00000011  F       0.00734035       0.00634600      -0.07822090
Cu       3.75454997       3.75454997      10.00000011  F       0.00966646      -0.01452059      -0.05938709
Cu       6.25757994       3.75454997      10.00000011  F      -0.00236839      -0.03729734      -0.07742520
Cu       8.76061004       3.75454997      10.00000011  F       0.00344475      -0.02282786      -0.07723305
Cu      11.26364002       3.75454997      10.00000011  F      -0.01606243      -0.01211568      -0.04249584
Cu       1.25151999       6.25757994      10.00000011  F       0.00962360      -0.00491308      -0.06697377
Cu       3.75454997       6.25757994      10.00000011  F       0.01029868       0.01479926      -0.04650126
Cu       6.25757994       6.25757994      10.00000011  F      -0.01055512       0.02836390      -0.07944468
Cu       8.76061004       6.25757994      10.00000011  F       0.00545778       0.01956483      -0.07731284
Cu      11.26364002       6.25757994      10.00000011  F      -0.01114642       0.00227591      -0.05547410
Cu       1.25151999       8.76061004      10.00000011  F       0.00698527       0.01056659      -0.05656162
Cu       3.75454997       8.76061004      10.00000011  F      -0.00598855      -0.01300374      -0.05683023
Cu       6.25757994       8.76061004      10.00000011  F      -0.00158263      -0.03533381      -0.04633851
Cu       8.76061004       8.76061004      10.00000011  F       0.00600165      -0.02000587      -0.05102025
Cu      11.26364002       8.76061004      10.00000011  F      -0.00723572      -0.00240687      -0.06932668
Cu       1.25151999      11.26364002      10.00000011  F       0.01382440      -0.01091900      -0.01345899
Cu       3.75454997      11.26364002      10.00000011  F      -0.01594916      -0.00195560      -0.07319694
Cu       6.25757994      11.26364002      10.00000011  F       0.00575285       0.01627813      -0.06510962
Cu       8.76061004      11.26364002      10.00000011  F      -0.00272487       0.00976847      -0.06308047
Cu      11.26364002      11.26364002      10.00000011  F      -0.00624542       0.00508481      -0.05447795
Cu       0.00000000       0.00000000      11.76991004  F       0.00087181       0.05481800       0.15549697
Cu       2.50302998       0.00000000      11.76991004  F       0.04032851       0.04470166       0.11926143
Cu       5.00605995       0.00000000      11.76991004  F       0.05725468       0.08600677       0.11664128
Cu       7.50909005       0.00000000      11.76991004  F       0.02646369       0.04457630       0.10167693
Cu      10.01212003       0.00000000      11.76991004  F       0.00817471       0.06225408       0.10248192
Cu       0.00000000       2.50302998      11.76991004  F      -0.08270763      -0.01600955       0.08319024
Cu       2.50302998       2.50302998      11.76991004  F       0.09780517       0.01615682       0.11779408
Cu       5.00605995       2.50302998      11.76991004  F       0.00911895      -0.03684130       0.13544830
Cu       7.50909005       2.50302998      11.76991004  F      -0.01630558      -0.01439853       0.13247672
Cu      10.01212003       2.50302998      11.76991004  F       0.07957238      -0.06615778       0.04957113
Cu       0.00000000       5.00605995      11.76991004  F      -0.07674564       0.05624112       0.10058064
Cu       2.50302998       5.00605995      11.76991004  F       0.06508659       0.03951221       0.11427578
Cu       5.00605995       5.00605995      11.76991004  F      -0.06602960       0.02258814       0.29362544
Cu       7.50909005       5.00605995      11.76991004  F      -0.05883092      -0.02088717       0.15657930
Cu      10.01212003       5.00605995      11.76991004  F       0.03090935      -0.00803687       0.03890741
Cu       0.00000000       7.50909005      11.76991004  F      -0.07745293       0.00003161       0.10119730
Cu       2.50302998       7.50909005      11.76991004  F       0.07826180      -0.03754758       0.13414417
Cu       5.00605995       7.50909005      11.76991004  F      -0.05096763      -0.00402648       0.15176422
Cu       7.50909005       7.50909005      11.76991004  F      -0.01953672      -0.00976493       0.11880574
Cu      10.01212003       7.50909005      11.76991004  F       0.04709421       0.07149867       0.04350364
Cu       0.00000000      10.01212003      11.76991004  F       0.02210804      -0.05893671       0.16066176
Cu       2.50302998      10.01212003      11.76991004  F       0.03113537      -0.05191322       0.09635593
Cu       5.00605995      10.01212003      11.76991004  F       0.01978513      -0.13815891       0.14044661
Cu       7.50909005      10.01212003      11.76991004  F       0.02534790      -0.09498894       0.11797948
Cu      10.01212003      10.01212003      11.76991004  F      -0.02722989      -0.07946739       0.12230109
Cu       1.28013114       1.25184301      13.58981124  T      -0.00867150      -0.02255481      -0.00042418
Cu       3.79675757       1.26537289      13.60843869  T      -0.00970298      -0.00914012      -0.01296796
Cu       6.30031944       1.26681426      13.61371830  T      -0.00346661      -0.00580620      -0.00358911
Cu       8.78765116       1.27087731      13.61131843  T       0.00193715      -0.01230414      -0.01776573
Cu      11.27911638       1.26686945      13.61747983  T       0.00950753      -0.01641229      -0.02294370
Cu       1.23765696       3.75477637      13.55767243  T      -0.00928327      -0.00118617      -0.01099843
Cu       3.78272145       3.77566466      13.61758082  T      -0.01530210       0.00572786      -0.01874747
Cu       6.26343791       3.76807109      13.60855309  T      -0.00339394       0.01115934      -0.02992723
Cu       8.74748102       3.76338392      13.56174958  T      -0.00138147       0.00024637      -0.05455939
Cu      11.22295263       3.75776524      13.60742377  T       0.00527647       0.00052093      -0.01416774
Cu       1.24144342       6.28146199      13.58056508  T      -0.00701754      -0.00330691      -0.00727549
Cu       3.75027492       6.24583460      13.64960623  T      -0.00909007      -0.00272115      -0.00876677
Cu       6.24566765       6.21240036      13.60064355  T      -0.01085947      -0.01086069      -0.02569315
Cu       8.73683413       6.23909181      13.55903612  T      -0.00010931      -0.00210349      -0.04496723
Cu      11.21176471       6.25311379      13.60759588  T       0.00668976      -0.00272320      -0.00615181
Cu       1.28263617       8.76276916      13.60384675  T      -0.01653548       0.01892884      -0.00715911
Cu       3.77050278       8.72833071      13.62359593  T       0.00742915       0.00964573      -0.01528330
Cu       6.28659170       8.71373216      13.61448417  T       0.00546737       0.01196273      -0.01006750
Cu       8.77289504       8.72616371      13.62028542  T      -0.00313787       0.01490707      -0.00974940
Cu      11.26419206       8.75022359      13.61182614  T       0.01220451       0.00517776      -0.01418458
Cu       1.24872386      11.26714376      13.60816028  T      -0.01745784       0.00220885      -0.01755937
Cu       3.74172819      11.25788981      13.57771015  T      -0.00866836      -0.00231317       0.00203784
Cu       6.25949414      11.25188091      13.57100535  T      -0.00396077      -0.00264343      -0.01497943
Cu       8.76704333      11.25710023      13.58079313  T      -0.00756971       0.01081114      -0.01512882
Cu      11.26939962      11.26784499      13.58822431  T       0.01895846       0.01070762      -0.00395386
Cu      12.51335383       0.00738494      15.40239995  T      -0.00743057       0.01459634      -0.08045680
Cu       2.50542800       0.03312586      15.39743139  T       0.02007899       0.01208312      -0.08040179
Cu       5.00229376      12.45327283      15.36561757  T       0.00541566      -0.00487772      -0.04326234
Cu       7.51306824      12.47372034      15.36221822  T      -0.00587593       0.00438960      -0.06078445
Cu      10.01576106      12.50218480      15.38153739  T      -0.00526869      -0.00395005      -0.06019908
Cu       0.10156886       2.51254262      15.37848023  T       0.01482661       0.00946750      -0.04259155
Cu       2.56741831       2.52971403      15.37523830  T       0.01039268       0.02111527      -0.04125089
Cu       5.03463004       2.39528326      15.45794215  T      -0.05312943      -0.02666122      -0.07804148
Cu       7.64688214       2.47926069      15.45137756  T       0.04564989      -0.04937959      -0.10464746
Cu      10.15440180       2.46465914      15.48269608  T       0.03738993      -0.04571465      -0.06056773
Cu      12.40295453       5.00511493      15.35171873  T       0.00574758       0.00444686      -0.05113084
Cu       2.27519711       4.99103976      15.37684927  T      -0.00831332      -0.00340488      -0.01956902
Pd       4.69551268       4.94641110      15.85607508  T      -0.06271181      -0.00803064      -0.01780292
Y        7.49838922       4.97179358      17.29305222  T      -0.09447916       0.00983109       0.09438191
Cu       9.92245396       5.00478516      15.46509468  T       0.08102353      -0.00099825      -0.12605400
Cu       0.03359355       7.50223888      15.35998312  T       0.01623188      -0.01387772      -0.03539461
Cu       2.52557377       7.51461274      15.50745810  T       0.01100555      -0.02942728      -0.04363342
Cu       5.03510299       7.54049220      15.44361456  T      -0.04103580       0.04706880      -0.07803491
Cu       7.59929965       7.47253854      15.46082417  T       0.05061219       0.08574686      -0.09771128
Cu      10.10293186       7.55167386      15.48632549  T       0.02632124       0.05089723      -0.07669650
Cu      12.51364343      10.00801718      15.38942668  T      -0.00751802      -0.00660726      -0.07309844
Cu       2.50773279      10.05688823      15.39608416  T       0.02651117      -0.00795285      -0.05349600
Cu       5.01194908      10.01615804      15.35392852  T      -0.00156034       0.00318223      -0.04553735
Cu       7.51337674      10.01192416      15.36317088  T      -0.00096191      -0.00545451      -0.06416610
Cu      10.01901900      10.03170486      15.37900059  T      -0.01421205      -0.00894170      -0.05215938
O        6.29719491       3.33479434      16.53744516  T      -0.03991816      -0.03001465       0.01737231
O        6.25056870       6.56557750      16.54948323  T      -0.05462915       0.01211310       0.03114536
O        9.01613957       6.41959774      16.58858448  T       0.06280613       0.09729332       0.09256889
O        9.04959333       3.56459059      16.59140728  T       0.05510327      -0.11208671       0.07297551
C        4.38083554       4.81516393      17.81228006  T      -0.04560210       0.02231628       0.13776505
O        5.33057626       4.87477273      18.59451650  T      -0.15629442      -0.00516755      -0.01427841
H        3.35198541       4.66041368      18.21800136  T       0.11184969       0.04013660      -0.01477450
C        2.74326323       7.67418758      17.33348603  T       0.07358200       0.08661226       0.61386532
O        2.92809453       7.73816517      18.48230227  T      -0.14724653      -0.02326562      -0.63949848
109
Lattice="12.51515363 0.0 0.0 0.0 12.51515363 0.0 0.0 0.0 25.30973" Properties=species:S:1:pos:R:3:move_mask:L:1:forces:R:3 energy=-453.44626773 stress="0.007792927176634034 0.00011415536690872178 0.0002439482419889771 0.00011415536690872178 0.008803765244656354 -0.00019146133829292238 0.0002439482419889771 -0.00019146133829292238 0.0030850224599657324" free_energy=-453.44787092 pbc="T T T"
Cu       1.25151999       1.25151999      10.00000011  F       0.00515108      -0.00125555      -0.05857211
Cu       3.75454997       1.25151999      10.00000011  F       0.00406314       0.01499015      -0.06393405
Cu       6.25757994       1.25151999      10.00000011  F       0.00269073       0.02940562      -0.06025090
Cu       8.76061004       1.25151999      10.00000011  F      -0.00243242       0.01180065      -0.05823066
Cu      11.26364002       1.25151999      10.00000011  F      -0.01166957       0.00598350      -0.07499081
Cu       1.25151999       3.75454997      10.00000011  F       0.00754475       0.00665250      -0.07763913
Cu       3.75454997       3.75454997      10.00000011  F       0.00932895      -0.01434071      -0.05889960
Cu       6.25757994       3.75454997      10.00000011  F      -0.00278299      -0.03706378      -0.07724757
Cu       8.76061004       3.75454997      10.00000011  F       0.00363831      -0.02240526      -0.07716935
Cu      11.26364002       3.75454997      10.00000011  F      -0.01565335      -0.01165059      -0.04226241
Cu       1.25151999       6.25757994      10.00000011  F       0.00985416      -0.00553318      -0.06648704
Cu       3.75454997       6.25757994      10.00000011  F       0.00999550       0.01440062      -0.04610896
Cu       6.25757994       6.25757994      10.00000011  F      -0.01088078       0.02796789      -0.07933090
Cu       8.76061004       6.25757994      10.00000011  F       0.00553887       0.01897363      -0.07730485
Cu      11.26364002       6.25757994      10.00000011  F      -0.01077858       0.00151204      -0.05530791
Cu       1.25151999       8.76061004      10.00000011  F       0.00747463       0.00984186      -0.05674877
Cu       3.75454997       8.76061004      10.00000011  F      -0.00610240      -0.01343337      -0.05654955
Cu       6.25757994       8.76061004      10.00000011  F      -0.00209850      -0.03573295      -0.04629017
Cu       8.76061004       8.76061004      10.00000011  F       0.00581513      -0.02065573      -0.05162550
Cu      11.26364002       8.76061004      10.00000011  F      -0.00685417      -0.00312617      -0.07002242
Cu       1.25151999      11.26364002      10.00000011  F       0.01424942      -0.01068420      -0.01383491
Cu       3.75454997      11.26364002      10.00000011  F      -0.01592338      -0.00181258      -0.07306445
Cu       6.25757994      11.26364002      10.00000011  F       0.00508210       0.01638059      -0.06525267
Cu       8.76061004      11.26364002      10.00000011  F      -0.00290200       0.00989797      -0.06394782
Cu      11.26364002      11.26364002      10.00000011  F      -0.00588372       0.00529858      -0.05552419
Cu       0.00000000       0.00000000      11.76991004  F       0.00165844       0.05555525       0.15535091
Cu       2.50302998       0.00000000      11.76991004  F       0.04085882       0.04509161       0.11945093
Cu       5.00605995       0.00000000      11.76991004  F       0.05663069       0.08636136       0.11685055
Cu       7.50909005       0.00000000      11.76991004  F       0.02565019       0.04534562       0.10166959
Cu      10.01212003       0.00000000      11.76991004  F       0.00831986       0.06276872       0.10252836
Cu       0.00000000       2.50302998      11.76991004  F      -0.08203172      -0.01498087       0.08309856
Cu       2.50302998       2.50302998      11.76991004  F       0.09772038       0.01670359       0.11784484
Cu       5.00605995       2.50302998      11.76991004  F       0.00850285      -0.03650760       0.13549383
Cu       7.50909005       2.50302998      11.76991004  F      -0.01695221      -0.01415595       0.13215922
Cu      10.01212003       2.50302998      11.76991004  F       0.08012462      -0.06536201       0.04922568
Cu       0.00000000       5.00605995      11.76991004  F      -0.07617736       0.05613548       0.10021717
Cu       2.50302998       5.00605995      11.76991004  F       0.06480290       0.03952436       0.11419441
Cu       5.00605995       5.00605995      11.76991004  F      -0.06672919       0.02248189       0.29306897
Cu       7.50909005       5.00605995      11.76991004  F      -0.05938894      -0.02099652       0.15570734
Cu      10.01212003       5.00605995      11.76991004  F       0.03169159      -0.00820933       0.03807278
Cu       0.00000000       7.50909005      11.76991004  F      -0.07665239      -0.00113434       0.10152089
Cu       2.50302998       7.50909005      11.76991004  F       0.07830764      -0.03810173       0.13427318
Cu       5.00605995       7.50909005      11.76991004  F      -0.05164469      -0.00446039       0.15198467
Cu       7.50909005       7.50909005      11.76991004  F      -0.02022941      -0.01022875       0.11866760
Cu      10.01212003       7.50909005      11.76991004  F       0.04759172       0.07058259       0.04361789
Cu       0.00000000      10.01212003      11.76991004  F       0.02276867      -0.05940333       0.16089557
Cu       2.50302998      10.01212003      11.76991004  F       0.03174656      -0.05230551       0.09692663
Cu       5.00605995      10.01212003      11.76991004  F       0.01918481      -0.13832249       0.14050621