109
Lattice="12.51515363 0.0 0.0 0.0 12.51515363 0.0 0.0 0.0 25.30973" Properties=species:S:1:pos:R:3:move_mask:L:1:forces:R:3 energy=-453.5681981 stress="0.007963822311693042 5.3513201283132845e-06 0.00036434883796302114 5.3513201283132845e-06 0.008709898895561265 1.2961748243230887e-05 0.00036434883796302114 1.2961748243230887e-05 0.0027282490851835055" free_energy=-453.56647965 pbc="T T T"
Cu       1.25151999       1.25151999      10.00000011  F       0.00526956      -0.00233167      -0.06719370
Cu       3.75454997       1.25151999      10.00000011  F       0.00141130       0.00628069      -0.07470327
Cu       6.25757994       1.25151999      10.00000011  F       0.00977009       0.02591306      -0.05374018
Cu       8.76061004       1.25151999      10.00000011  F      -0.01311124       0.01291747      -0.04719295
Cu      11.26364002       1.25151999      10.00000011  F      -0.00491278      -0.00483082      -0.07145956
Cu       1.25151999       3.75454997      10.00000011  F       0.00376103       0.01265809      -0.06032902
Cu       3.75454997       3.75454997      10.00000011  F       0.00145033      -0.01302347      -0.05167581
Cu       6.25757994       3.75454997      10.00000011  F      -0.00260579      -0.02585233      -0.08133726
Cu       8.76061004       3.75454997      10.00000011  F      -0.00049953      -0.02112063      -0.08565889
Cu      11.26364002       3.75454997      10.00000011  F      -0.00090990       0.00909361      -0.04997447
Cu       1.25151999       6.25757994      10.00000011  F       0.00320817      -0.01122996      -0.06217761
Cu       3.75454997       6.25757994      10.00000011  F       0.00308254       0.01376445      -0.05280895
Cu       6.25757994       6.25757994      10.00000011  F      -0.00246098       0.02818349      -0.08453682
Cu       8.76061004       6.25757994      10.00000011  F      -0.00215444       0.02191038      -0.08667927
Cu      11.26364002       6.25757994      10.00000011  F      -0.00046505      -0.00777518      -0.05185153
Cu       1.25151999       8.76061004      10.00000011  F       0.00553039      -0.00059900      -0.06639946
Cu       3.75454997       8.76061004      10.00000011  F       0.00094726      -0.00805383      -0.07367499
Cu       6.25757994       8.76061004      10.00000011  F       0.00849513      -0.03075682      -0.05212150
Cu       8.76061004       8.76061004      10.00000011  F      -0.01136823      -0.01563034      -0.04569907
Cu      11.26364002       8.76061004      10.00000011  F      -0.00515995       0.00229732      -0.07054864
Cu       1.25151999      11.26364002      10.00000011  F       0.00393199       0.00149634      -0.01049914
Cu       3.75454997      11.26364002      10.00000011  F      -0.00297487       0.00123721      -0.06224987
Cu       6.25757994      11.26364002      10.00000011  F       0.00060623       0.00265170      -0.07374292
Cu       8.76061004      11.26364002      10.00000011  F      -0.00616121       0.00204030      -0.07529778
Cu      11.26364002      11.26364002      10.00000011  F       0.00447940       0.00144415      -0.05857590
Cu       0.00000000       0.00000000      11.76991004  F       0.00557620       0.03427152       0.13812010
Cu       2.50302998       0.00000000      11.76991004  F       0.03043398       0.03169763       0.11972228
Cu       5.00605995       0.00000000      11.76991004  F       0.06140807       0.08046683       0.10525294
Cu       7.50909005       0.00000000      11.76991004  F       0.02141022       0.09074095       0.12400312
Cu      10.01212003       0.00000000      11.76991004  F      -0.02536305       0.05634930       0.09518645
Cu       0.00000000       2.50302998      11.76991004  F      -0.11133135      -0.00902086       0.06039081
Cu       2.50302998       2.50302998      11.76991004  F       0.12952333      -0.00102491       0.07509851
Cu       5.00605995       2.50302998      11.76991004  F      -0.01083055       0.00698787       0.17086399
Cu       7.50909005       2.50302998      11.76991004  F      -0.03122296      -0.00654129       0.13211577
Cu      10.01212003       2.50302998      11.76991004  F       0.10253656      -0.02710925       0.08477211
Cu       0.00000000       5.00605995      11.76991004  F      -0.14066274       0.00366718       0.05911888
Cu       2.50302998       5.00605995      11.76991004  F       0.12441775       0.00347330       0.08267650
Cu       5.00605995       5.00605995      11.76991004  F      -0.02925352       0.00230678       0.29352634
Cu       7.50909005       5.00605995      11.76991004  F      -0.06184710       0.00260279       0.19026924
Cu      10.01212003       5.00605995      11.76991004  F       0.07370194       0.00200200       0.06501609
Cu       0.00000000       7.50909005      11.76991004  F      -0.10927631       0.00281001       0.06363963
Cu       2.50302998       7.50909005      11.76991004  F       0.12732300      -0.00347762       0.07799912
Cu       5.00605995       7.50909005      11.76991004  F      -0.00814468      -0.00872955       0.17151205
Cu       7.50909005       7.50909005      11.76991004  F      -0.03046369       0.00440884       0.13245293
Cu      10.01212003       7.50909005      11.76991004  F       0.10543263       0.02412016       0.08664270
Cu       0.00000000      10.01212003      11.76991004  F       0.00621349      -0.03042150       0.13419989
Cu       2.50302998      10.01212003      11.76991004  F       0.03320557      -0.02753557       0.11713737
Cu       5.00605995      10.01212003      11.76991004  F       0.06030507      -0.07755634       0.10378452
Cu       7.50909005      10.01212003      11.76991004  F       0.02351656      -0.08825705       0.12280127
Cu      10.01212003      10.01212003      11.76991004  F      -0.02669793      -0.05406145       0.09320807
Cu       1.27584732       1.24610857      13.58924531  T       0.00797618      -0.02016033      -0.00096139
Cu       3.79492836       1.26538028      13.60635646  T      -0.00515856       0.00685655      -0.00714968
Cu       6.29580285       1.28243881      13.61871318  T       0.00222016      -0.00121760      -0.01290882
Cu       8.78086657       1.27665180      13.61480434  T      -0.00489874      -0.00379052      -0.00278283
Cu      11.26872956       1.26323818      13.60697933  T       0.00972023       0.00182431       0.00172324
Cu       1.24369815       3.74996542      13.54509198  T      -0.00468475      -0.00796890      -0.00967754
Cu       3.76593025       3.78107308      13.63427537  T      -0.01441103       0.00320239      -0.01380197
Cu       6.25535400       3.78342881      13.60730355  T      -0.00452941       0.00873918      -0.03507029
Cu       8.75111067       3.76706925      13.55858915  T      -0.00806874      -0.00015628      -0.05411479
Cu      11.24313344       3.77068651      13.62552757  T      -0.00047409       0.00653628      -0.00345918
Cu       1.24398137       6.26191319      13.54690213  T      -0.00699012       0.01038678      -0.00932050
Cu       3.76648867       6.23149649      13.63411870  T      -0.01531317      -0.00542632      -0.01337659
Cu       6.25631566       6.22934763      13.60702160  T      -0.00510662      -0.01047256      -0.03289275
Cu       8.75207171       6.24547504      13.55855600  T      -0.00899376      -0.00152332      -0.05385231
Cu      11.24415755       6.24113829      13.62625092  T      -0.00153744      -0.01263829      -0.00513200
Cu       1.27659047       8.76712931      13.58825519  T       0.00725990       0.01764806      -0.00092436
Cu       3.79543860       8.74743747      13.60594644  T      -0.00482850      -0.00496121      -0.00560262
Cu       6.29654099       8.73063838      13.61839427  T       0.00098097       0.00293091      -0.01181582
Cu       8.78173375       8.73598598      13.61470108  T      -0.00595181       0.00688265      -0.00150402
Cu      11.26906809       8.74910386      13.60654122  T       0.00861812      -0.00062171       0.00252486
Cu       1.24674646      11.26412436      13.60929365  T      -0.00531122       0.00151511      -0.02354228
Cu       3.74200766      11.26410546      13.58318743  T      -0.02203473       0.00129759      -0.00007529
Cu       6.25388084      11.26415452      13.57214099  T      -0.00316314       0.00224390      -0.00150649
Cu       8.76470438      11.26393938      13.57832568  T      -0.00812674       0.00122419      -0.00061430
Cu      11.26798353      11.26373714      13.58809195  T       0.02001619       0.00158742       0.00303874
Cu      12.51092326      12.51460221      15.39982822  T      -0.01744675       0.02329240      -0.08464854
Cu       2.50237906       0.00531081      15.39806894  T       0.02232249       0.02009542      -0.08352791
Cu       5.00214258      12.48405372      15.36898655  T       0.01553101      -0.00767989      -0.05012371
Cu       7.51152500      12.49361355      15.36444927  T      -0.00732147       0.00060171      -0.06024008
Cu      10.01429203      12.49817407      15.37970142  T      -0.01135082       0.00738907      -0.05882283
Cu       0.07666545       2.47962288      15.36044477  T       0.01544207       0.01129710      -0.05448100
Cu       2.55873442       2.50323535      15.36882482  T       0.00723026       0.01206601      -0.04825436
Cu       5.02648969       2.43341168      15.45861032  T      -0.04982442      -0.04949359      -0.09302625
Cu       7.62858536       2.50678752      15.45548761  T       0.05967100      -0.08592928      -0.12747259
Cu      10.13815413       2.46244684      15.47784623  T       0.03687593      -0.05921684      -0.07308839
Cu      12.40090154       5.00688708      15.44240906  T      -0.03978622       0.00281140      -0.04296581
Cu       2.27935815       5.00777240      15.44716957  T      -0.02948872       0.00367825      -0.04516971
Pd       4.69788681       5.00637208      15.87551245  T      -0.09974908      -0.00163870       0.03376363
Y        7.50834315       5.00714889      17.28548435  T      -0.07200574      -0.00008830       0.07841039
Cu       9.93492180       5.00607860      15.47401509  T       0.09489287       0.00032704      -0.16506927
Cu       0.07870267       7.53395115      15.35864575  T       0.01463923      -0.00654163      -0.05352748
Cu       2.55959910       7.51076245      15.36825434  T       0.00601751      -0.01815290      -0.04554313
Cu       5.02723184       7.57958729      15.45763337  T      -0.05094998       0.04555406      -0.09172333
Cu       7.63064849       7.50746759      15.45525122  T       0.05928839       0.08077374      -0.12631570
Cu      10.14020812       7.54919761      15.47848327  T       0.03586465       0.06175804      -0.07336628
Cu      12.51083753      10.01384612      15.39940631  T      -0.01776511      -0.02238306      -0.08521337
Cu       2.50228845      10.00840040      15.39753466  T       0.02299804      -0.01855185      -0.08386363
Cu       5.00204196      10.04378086      15.36873244  T       0.01727718       0.00293649      -0.05009346
Cu       7.51155040      10.03509985      15.36433107  T      -0.00736866      -0.00797909      -0.06052612
Cu      10.01421093      10.02829098      15.37961866  T      -0.01209986      -0.00890334      -0.05885400
O        6.28159227       3.38998104      16.53167859  T      -0.07413623      -0.00100791       0.03952517
O        6.28304465       6.62150622      16.52796717  T      -0.07753450      -0.00138150       0.04263273
O        9.03823270       6.43450217      16.57867446  T       0.04223866       0.11700624       0.10959468
O        9.03578035       3.57772461      16.57715511  T       0.04576153      -0.11517811       0.11069247
C        1.05253831       4.95453757      16.98711200  T      -0.06236588       0.00519350      -0.47825638
O        1.15549785       4.92625119      18.15523272  T       0.01970378      -0.00722052       0.54323991
H        3.39176332       4.98093540      18.28791949  T       0.25686991       0.00764320      -0.06479535
C        4.42401432       4.99944256      17.84470056  T      -0.37945560      -0.00580900       0.11779990
O        5.39614014       5.00810142      18.59780600  T      -0.01025457      -0.00206046       0.14672670
109
Lattice="12.51515363 0.0 0.0 0.0 12.51515363 0.0 0.0 0.0 25.30973" Properties=species:S:1:pos:R:3:move_mask:L:1:forces:R:3 energy=-453.57144346999996 stress="0.007886203515871451 4.456331410225507e-06 0.00041985183859699475 4.456331410225507e-06 0.008628568754858715 8.403087290886525e-06 0.00041985183859699475 8.403087290886525e-06 0.0028941718221332322" free_energy=-453.56971997 pbc="T T T"
Cu       1.25151999       1.25151999      10.00000011  F       0.00513225      -0.00246331      -0.06746141
Cu       3.75454997       1.25151999      10.00000011  F       0.00147755       0.00618105      -0.07497350
Cu       6.25757994       1.25151999      10.00000011  F       0.00967177       0.02562584      -0.05383261
Cu       8.76061004       1.25151999      10.00000011  F      -0.01310395       0.01260679      -0.04732721
Cu      11.26364002       1.25151999      10.00000011  F      -0.00516766      -0.00499934      -0.07175894
Cu       1.25151999       3.75454997      10.00000011  F       0.00368386       0.01242249      -0.06080329
Cu       3.75454997       3.75454997      10.00000011  F       0.00150075      -0.01317471      -0.05206884
Cu       6.25757994       3.75454997      10.00000011  F      -0.00281537      -0.02594386      -0.08160945
Cu       8.76061004       3.75454997      10.00000011  F      -0.00043536      -0.02126572      -0.08589546
Cu      11.26364002       3.75454997      10.00000011  F      -0.00117367       0.00885631      -0.05036193
Cu       1.25151999       6.25757994      10.00000011  F       0.00313349      -0.01096044      -0.06262916
Cu       3.75454997       6.25757994      10.00000011  F       0.00312276       0.01394654      -0.05317414
Cu       6.25757994       6.25757994      10.00000011  F      -0.00268345       0.02828296      -0.08479602
Cu       8.76061004       6.25757994      10.00000011  F      -0.00208094       0.02205740      -0.08691087
Cu      11.26364002       6.25757994      10.00000011  F      -0.00071737      -0.00751275      -0.05223809
Cu       1.25151999       8.76061004      10.00000011  F       0.00539820      -0.00049770      -0.06663468
Cu       3.75454997       8.76061004      10.00000011  F       0.00099520      -0.00799343      -0.07390665
Cu       6.25757994       8.76061004      10.00000011  F       0.00838969      -0.03048191      -0.05220281
Cu       8.76061004       8.76061004      10.00000011  F      -0.01135959      -0.01532990      -0.04583214
Cu      11.26364002       8.76061004      10.00000011  F      -0.00539839       0.00243297      -0.07084181
Cu       1.25151999      11.26364002      10.00000011  F       0.00373358       0.00146850      -0.01085104
Cu       3.75454997      11.26364002      10.00000011  F      -0.00287351       0.00121512      -0.06241620
Cu       6.25757994      11.26364002      10.00000011  F       0.00076274       0.00263145      -0.07354251
Cu       8.76061004      11.26364002      10.00000011  F      -0.00639563       0.00201879      -0.07520990
Cu      11.26364002      11.26364002      10.00000011  F       0.00426364       0.00142698      -0.05886164
Cu       0.00000000       0.00000000      11.76991004  F       0.00514637       0.03429918       0.13643090
Cu       2.50302998       0.00000000      11.76991004  F       0.03057616       0.03171639       0.11808536
Cu       5.00605995       0.00000000      11.76991004  F       0.06122358       0.08031142       0.10460213
Cu       7.50909005       0.00000000      11.76991004  F       0.02143126       0.09018341       0.12281652
Cu      10.01212003       0.00000000      11.76991004  F      -0.02538356       0.05614169       0.09460120
Cu       0.00000000       2.50302998      11.76991004  F      -0.11150087      -0.00946914       0.05954228
Cu       2.50302998       2.50302998      11.76991004  F       0.12931472      -0.00146883       0.07403589
Cu       5.00605995       2.50302998      11.76991004  F      -0.01080248       0.00664359       0.16962292
Cu       7.50909005       2.50302998      11.76991004  F      -0.03155428      -0.00724247       0.13043198
Cu      10.01212003       2.50302998      11.76991004  F       0.10266064      -0.02804523       0.08333257
Cu       0.00000000       5.00605995      11.76991004  F      -0.14078394       0.00364756       0.05860387
Cu       2.50302998       5.00605995      11.76991004  F       0.12410873       0.00349478       0.08229308
Cu       5.00605995       5.00605995      11.76991004  F      -0.02957397       0.00230693       0.29205265
Cu       7.50909005       5.00605995      11.76991004  F      -0.06251026       0.00259064       0.18755330
Cu      10.01212003       5.00605995      11.76991004  F       0.07396545       0.00195628       0.06264884
Cu       0.00000000       7.50909005      11.76991004  F      -0.10950665       0.00326965       0.06273196
Cu       2.50302998       7.50909005      11.76991004  F       0.12713151      -0.00302555       0.07691110
Cu       5.00605995       7.50909005      11.76991004  F      -0.00814494      -0.00839884       0.17030278
Cu       7.50909005       7.50909005      11.76991004  F      -0.03080800       0.00509168       0.13080606
Cu      10.01212003       7.50909005      11.76991004  F       0.10555129       0.02505234       0.08524624
Cu       0.00000000      10.01212003      11.76991004  F       0.00579016      -0.03047489       0.13257565
Cu       2.50302998      10.01212003      11.76991004  F       0.03332997      -0.02759242       0.11555889
Cu       5.00605995      10.01212003      11.76991004  F       0.06010254      -0.07737835       0.10314539
Cu       7.50909005      10.01212003      11.76991004  F       0.02351744      -0.08765160       0.12161643
Cu      10.01212003      10.01212003      11.76991004  F      -0.02669875      -0.05383996       0.09262518
Cu       1.27592417       1.24591408      13.58923620  T       0.00749284      -0.01820810      -0.00335032
Cu       3.79487867       1.26544648      13.60628736  T      -0.00483063       0.00594522      -0.00996949
Cu       6.29582438       1.28242704      13.61858865  T       0.00153172      -0.00143281      -0.01527480
Cu       8.78081939       1.27661525      13.61477751  T      -0.00317160      -0.00499922      -0.00772073
Cu      11.26882330       1.26325570      13.60699604  T       0.00937476       0.00176388      -0.00218347
Cu       1.24365297       3.74988857      13.54499859  T      -0.00416582      -0.00796687      -0.01339529
Cu       3.76579120       3.78110400      13.63414224  T      -0.01294703       0.00385984      -0.01507265
Cu       6.25531032       3.78351316      13.60696516  T      -0.00486762       0.00749809      -0.03177013
Cu       8.75103282       3.76706775      13.55806701  T      -0.00758650      -0.00034980      -0.05042534
Cu      11.24312893       3.77074958      13.62549416  T      -0.00072676       0.00467900      -0.00775296
Cu       1.24391391       6.26201331      13.54681203  T      -0.00637978       0.01023775      -0.01306019
Cu       3.76634100       6.23144405      13.63398962  T      -0.01386082      -0.00597401      -0.01471332
Cu       6.25626635       6.22924664      13.60670421  T      -0.00553184      -0.00910017      -0.02984274
Cu       8.75198498       6.24546039      13.55803639  T      -0.00847710      -0.00129198      -0.05029308
Cu      11.24414279       6.24101639      13.62620156  T      -0.00173292      -0.01038951      -0.00926097
Cu       1.27666056       8.76729964      13.58824633  T       0.00692247       0.01602299      -0.00328148
Cu       3.79539205       8.74738966      13.60589253  T      -0.00465380      -0.00429604      -0.00853069
Cu       6.29655051       8.73066666      13.61828038  T       0.00034088       0.00290854      -0.01435251
Cu       8.78167630       8.73605231      13.61468665  T      -0.00421149       0.00779037      -0.00670731
Cu      11.26915132       8.74909785      13.60656552  T       0.00830486      -0.00068756      -0.00159488
Cu       1.24669528      11.26413900      13.60906662  T      -0.00486331       0.00131123      -0.02385897
Cu       3.74179515      11.26411797      13.58318692  T      -0.01953293       0.00115615      -0.00266286
Cu       6.25385043      11.26417617      13.57212631  T      -0.00342284       0.00208345      -0.00430278
Cu       8.76462591      11.26395115      13.57831961  T      -0.00736955       0.00115968      -0.00318751
Cu      11.26817664      11.26375241      13.58812130  T       0.01711086       0.00148612       0.00004023
Cu      12.51075493      12.51482698      15.39901148  T      -0.01601356       0.02143325      -0.08060649
Cu       2.50259445       0.00550479      15.39726283  T       0.02117141       0.01853095      -0.07963856
Cu       5.00229239      12.48397951      15.36850313  T       0.01484298      -0.00818212      -0.04820345
Cu       7.51145441      12.49361931      15.36386791  T      -0.00732680      -0.00133115      -0.05744409
Cu      10.01418252      12.49824541      15.37913398  T      -0.01143651       0.00489406      -0.05639922
Cu       0.07681438       2.47973189      15.35991908  T       0.01587587       0.01286167      -0.04929954
Cu       2.55880426       2.50335174      15.36835912  T       0.00555282       0.01303403      -0.04436408
Cu       5.02600898       2.43293410      15.45771259  T      -0.03845632      -0.03992105      -0.08269763
Cu       7.62916106       2.50595852      15.45425756  T       0.04679565      -0.06818820      -0.10655546
Cu      10.13850994       2.46187552      15.47714084  T       0.02806461      -0.04902129      -0.06174165
Cu      12.40051770       5.00691423      15.44199449  T      -0.04392269       0.00308039      -0.04285873
Cu       2.27907355       5.00780782      15.44673399  T      -0.02729150       0.00343958      -0.03721468
Pd       4.69692439       5.00635631      15.87583819  T      -0.08728847      -0.00187013       0.04870991
Y        7.50764843       5.00714814      17.28624086  T      -0.06362601       0.00002908       0.07369763
Cu       9.93583741       5.00608173      15.47242235  T       0.07293407       0.00044823      -0.14101126
Cu       0.07884397       7.53388808      15.35812918  T       0.01479835      -0.00799569      -0.04901854
Cu       2.55965704       7.51058724      15.36781496  T       0.00443892      -0.01826470      -0.04217104
Cu       5.02674024       7.58002669      15.45674854  T      -0.03930195       0.03590692      -0.08142926
Cu       7.63122043       7.50824690      15.45403255  T       0.04656435       0.06343827      -0.10577852
Cu      10.14055416       7.54979346      15.47777536  T       0.02781048       0.05166831      -0.06273315
Cu      12.51066620      10.01363023      15.39858425  T      -0.01631877      -0.02037138      -0.08121511
Cu       2.50251035      10.00822143      15.39672550  T       0.02174080      -0.01702625      -0.08006740
Cu       5.00220866      10.04380915      15.36824902  T       0.01651623       0.00376093      -0.04827376
Cu       7.51147932      10.03502288      15.36374693  T      -0.00740774      -0.00558963      -0.05764956
Cu      10.01409417      10.02820513      15.37905071  T      -0.01217302      -0.00617601      -0.05646912
O        6.28087703       3.38997128      16.53206001  T      -0.07065548      -0.00970996       0.02259135
O        6.28229662       6.62149283      16.52837845  T      -0.07406074       0.00710132       0.02610429
O        9.03864019       6.43563116      16.57973190  T       0.04280378       0.11038733       0.09368904
O        9.03622189       3.57661339      16.57822318  T       0.04611210      -0.10912824       0.09453877
C        1.05193658       4.95458775      16.98249753  T       0.02224959      -0.01658044       0.38604765
O        1.15568796       4.92618148      18.16047412  T      -0.05240668       0.01367200      -0.31827848
H        3.39424182       4.98100924      18.28729434  T       0.09821787       0.00479546      -0.00031108
C        4.42035314       4.99938649      17.84583722  T      -0.05773938      -0.00143805       0.14714034
O        5.39604115       5.00808152      18.59922158  T      -0.16745306      -0.00356209       0.02940225
109
Lattice="12.51515363 0.0 0.0 0.0 12.51515363 0.0 0.0 0.0 25.30973" Properties=species:S:1:pos:R:3:move_mask:L:1:forces:R:3 energy=-453.57513466 stress="0.007798288938807114 4.361154637564913e-06 0.00039965993866535894 4.361154637564913e-06 0.008566740190695461 9.648037425662578e-06 0.00039965993866535894 9.648037425662578e-06 0.002711914856072777" free_energy=-453.57340762 pbc="T T T"
Cu       1.25151999       1.25151999      10.00000011  F       0.00494437      -0.00232926      -0.06778038
Cu       3.75454997       1.25151999      10.00000011  F       0.00143449       0.00624195      -0.07525097
Cu       6.25757994       1.25151999      10.00000011  F       0.00979583       0.02570308      -0.05400984
Cu       8.76061004       1.25151999      10.00000011  F      -0.01331166       0.01266076      -0.04747025
Cu      11.26364002       1.25151999      10.00000011  F      -0.00542094      -0.00492534      -0.07200758
Cu       1.25151999       3.75454997      10.00000011  F       0.00349070       0.01258193      -0.06093823
Cu       3.75454997       3.75454997      10.00000011  F       0.00137348      -0.01303392      -0.05228628
Cu       6.25757994       3.75454997      10.00000011  F      -0.00269917      -0.02588501      -0.08192452
Cu       8.76061004       3.75454997      10.00000011  F      -0.00063020      -0.02122705      -0.08609500
Cu      11.26364002       3.75454997      10.00000011  F      -0.00135097       0.00898048      -0.05041923
Cu       1.25151999       6.25757994      10.00000011  F       0.00294313      -0.01109867      -0.06274716
Cu       3.75454997       6.25757994      10.00000011  F       0.00299499       0.01382846      -0.05338531
Cu       6.25757994       6.25757994      10.00000011  F      -0.00256542       0.02825014      -0.08510056
Cu       8.76061004       6.25757994      10.00000011  F      -0.00228235       0.02204554      -0.08710806
Cu      11.26364002       6.25757994      10.00000011  F      -0.00089469      -0.00761539      -0.05229446
Cu       1.25151999       8.76061004      10.00000011  F       0.00521213      -0.00064950      -0.06692907
Cu       3.75454997       8.76061004      10.00000011  F       0.00095932      -0.00806772      -0.07417556
Cu       6.25757994       8.76061004      10.00000011  F       0.00850407      -0.03059399      -0.05237563
Cu       8.76061004       8.76061004      10.00000011  F      -0.01155997      -0.01541953      -0.04598500
Cu      11.26364002       8.76061004      10.00000011  F      -0.00565593       0.00234603      -0.07109906
Cu       1.25151999      11.26364002      10.00000011  F       0.00356414       0.00145059      -0.01130034
Cu       3.75454997      11.26364002      10.00000011  F      -0.00286948       0.00119510      -0.06277840
Cu       6.25757994      11.26364002      10.00000011  F       0.00074145       0.00262297      -0.07396412
Cu       8.76061004      11.26364002      10.00000011  F      -0.00645559       0.00201459      -0.07548727
Cu      11.26364002      11.26364002      10.00000011  F       0.00391377       0.00140920      -0.05906949
Cu       0.00000000       0.00000000      11.76991004  F       0.00488945       0.03462714       0.13634910
Cu       2.50302998       0.00000000      11.76991004  F       0.03061598       0.03192306       0.11787273
Cu       5.00605995       0.00000000      11.76991004  F       0.06116064       0.08024190       0.10458624
Cu       7.50909005       0.00000000      11.76991004  F       0.02129422       0.09027278       0.12265447
Cu      10.01212003       0.00000000      11.76991004  F      -0.02553791       0.05600433       0.09475405
Cu       0.00000000       2.50302998      11.76991004  F      -0.11163600      -0.00926455       0.05953413
Cu       2.50302998       2.50302998      11.76991004  F       0.12910776      -0.00124404       0.07388554
Cu       5.00605995       2.50302998      11.76991004  F      -0.01121864       0.00689776       0.16963181
Cu       7.50909005       2.50302998      11.76991004  F      -0.03176452      -0.00754789       0.12967531
Cu      10.01212003       2.50302998      11.76991004  F       0.10292104      -0.02807445       0.08310574
Cu       0.00000000       5.00605995      11.76991004  F      -0.14071205       0.00362997       0.05801282
Cu       2.50302998       5.00605995      11.76991004  F       0.12380943       0.00350811       0.08189106
Cu       5.00605995       5.00605995      11.76991004  F      -0.03027673       0.00231153       0.29165166
Cu       7.50909005       5.00605995      11.76991004  F      -0.06306781       0.00259771       0.18643769
Cu      10.01212003       5.00605995      11.76991004  F       0.07448666       0.00194351       0.06179268
Cu       0.00000000       7.50909005      11.76991004  F      -0.10969623       0.00306492       0.06274949
Cu       2.50302998       7.50909005      11.76991004  F       0.12694620      -0.00326283       0.07681100
Cu       5.00605995       7.50909005      11.76991004  F      -0.00855368      -0.00865558       0.17040588
Cu       7.50909005       7.50909005      11.76991004  F      -0.03102886       0.00542303       0.13013975
Cu      10.01212003       7.50909005      11.76991004  F       0.10578973       0.02508669       0.08511435
Cu       0.00000000      10.01212003      11.76991004  F       0.00553452      -0.03079715       0.13255150
Cu       2.50302998      10.01212003      11.76991004  F       0.03336954      -0.02779386       0.11541045
Cu       5.00605995      10.01212003      11.76991004  F       0.06005711      -0.07730710       0.10318058