109
Lattice="12.51515363 0.0 0.0 0.0 12.51515363 0.0 0.0 0.0 25.30973" Properties=species:S:1:pos:R:3:move_mask:L:1:forces:R:3 energy=-452.91602728000004 stress="0.007316838473243062 1.3378069384945553e-05 0.00033799964558813765 1.3378069384945553e-05 0.008170370251354501 3.1805326165947764e-05 0.00033799964558813765 3.1805326165947764e-05 0.0031060490556373" free_energy=-452.91547321 pbc="T T T"
Cu       1.25151999       1.25151999      10.00000011  F      -0.00508449      -0.00672507      -0.07752375
Cu       3.75454997       1.25151999      10.00000011  F       0.01436992       0.00986896      -0.06850290
Cu       6.25757994       1.25151999      10.00000011  F      -0.00614335       0.01950892      -0.06303360
Cu       8.76061004       1.25151999      10.00000011  F       0.00650647       0.01718088      -0.05551776
Cu      11.26364002       1.25151999      10.00000011  F      -0.00666248       0.00164308      -0.07199131
Cu       1.25151999       3.75454997      10.00000011  F      -0.01589903       0.01280168      -0.06654063
Cu       3.75454997       3.75454997      10.00000011  F       0.02737957      -0.00816555      -0.05198393
Cu       6.25757994       3.75454997      10.00000011  F      -0.02827822      -0.01987275      -0.07856593
Cu       8.76061004       3.75454997      10.00000011  F       0.01546336      -0.02497707      -0.07547350
Cu      11.26364002       3.75454997      10.00000011  F      -0.00134824      -0.00225656      -0.05587403
Cu       1.25151999       6.25757994      10.00000011  F      -0.01623067      -0.01142257      -0.06780487
Cu       3.75454997       6.25757994      10.00000011  F       0.02878627       0.00897302      -0.05257077
Cu       6.25757994       6.25757994      10.00000011  F      -0.02839527       0.02187326      -0.08154569
Cu       8.76061004       6.25757994      10.00000011  F       0.01424862       0.02553227      -0.07626573
Cu      11.26364002       6.25757994      10.00000011  F      -0.00099775       0.00368035      -0.05749845
Cu       1.25151999       8.76061004      10.00000011  F      -0.00473205       0.00348153      -0.07631092
Cu       3.75454997       8.76061004      10.00000011  F       0.01367107      -0.01236325      -0.06755322
Cu       6.25757994       8.76061004      10.00000011  F      -0.00589439      -0.02334121      -0.06116180
Cu       8.76061004       8.76061004      10.00000011  F       0.00686693      -0.01912863      -0.05452412
Cu      11.26364002       8.76061004      10.00000011  F      -0.00679564      -0.00498987      -0.07073474
Cu       1.25151999      11.26364002      10.00000011  F      -0.00112705       0.00174827      -0.00860608
Cu       3.75454997      11.26364002      10.00000011  F      -0.01242303       0.00153941      -0.07093992
Cu       6.25757994      11.26364002      10.00000011  F      -0.00139898       0.00165578      -0.06628934
Cu       8.76061004      11.26364002      10.00000011  F       0.00424369       0.00118386      -0.06911119
Cu      11.26364002      11.26364002      10.00000011  F       0.01331504       0.00176305      -0.07107286
Cu       0.00000000       0.00000000      11.76991004  F      -0.00461970       0.03316726       0.11607382
Cu       2.50302998       0.00000000      11.76991004  F       0.03511177       0.02489144       0.11922728
Cu       5.00605995       0.00000000      11.76991004  F       0.00644674       0.08947051       0.10308554
Cu       7.50909005       0.00000000      11.76991004  F      -0.00780553       0.04452129       0.08011739
Cu      10.01212003       0.00000000      11.76991004  F      -0.01645539       0.09741613       0.10538936
Cu       0.00000000       2.50302998      11.76991004  F      -0.00173286       0.05430407       0.12680442
Cu       2.50302998       2.50302998      11.76991004  F       0.05913708       0.04310331       0.13056370
Cu       5.00605995       2.50302998      11.76991004  F      -0.01944205      -0.04280168       0.06441606
Cu       7.50909005       2.50302998      11.76991004  F       0.03241684       0.03701818       0.17192193
Cu      10.01212003       2.50302998      11.76991004  F       0.01976639      -0.02076281       0.13562157
Cu       0.00000000       5.00605995      11.76991004  F      -0.01758715       0.00161405       0.08656110
Cu       2.50302998       5.00605995      11.76991004  F       0.10986730       0.00091718       0.15428128
Cu       5.00605995       5.00605995      11.76991004  F      -0.02695817       0.00171148       0.18492068
Cu       7.50909005       5.00605995      11.76991004  F       0.04648798       0.00308074       0.24867714
Cu      10.01212003       5.00605995      11.76991004  F      -0.01030594       0.00337758       0.25217496
Cu       0.00000000       7.50909005      11.76991004  F      -0.00288595      -0.05788869       0.12784635
Cu       2.50302998       7.50909005      11.76991004  F       0.05631729      -0.04708529       0.13102377
Cu       5.00605995       7.50909005      11.76991004  F      -0.01979247       0.03844864       0.06419852
Cu       7.50909005       7.50909005      11.76991004  F       0.03054952      -0.03918804       0.17298083
Cu      10.01212003       7.50909005      11.76991004  F       0.01963495       0.02099666       0.13583364
Cu       0.00000000      10.01212003      11.76991004  F      -0.00477326      -0.02887325       0.11227940
Cu       2.50302998      10.01212003      11.76991004  F       0.03581063      -0.02327151       0.11734945
Cu       5.00605995      10.01212003      11.76991004  F       0.00364814      -0.08612012       0.09986241
Cu       7.50909005      10.01212003      11.76991004  F      -0.00730390      -0.03791758       0.07657096
Cu      10.01212003      10.01212003      11.76991004  F      -0.01844015      -0.09114868       0.10380932
Cu       1.26232195       1.24823915      13.58675838  T      -0.00179599      -0.01109124       0.00164327
Cu       3.77513927       1.26636046      13.61644188  T      -0.00628553      -0.01926107      -0.01101436
Cu       6.26232957       1.27231592      13.60771863  T       0.00577812      -0.00660104      -0.00301386
Cu       8.75312961       1.27676531      13.60630128  T      -0.00226834      -0.00989846       0.00461621
Cu      11.26677481       1.26074279      13.60106369  T       0.00309160      -0.01219613      -0.01419722
Cu       1.27365129       3.76489975      13.59200356  T      -0.00083862      -0.01051276      -0.00494286
Cu       3.78433453       3.75396964      13.61480080  T      -0.01247253       0.00183323      -0.01947567
Cu       6.26850880       3.77470049      13.58608058  T      -0.01018124       0.00346836      -0.03874691
Cu       8.76970280       3.78175166      13.60742706  T       0.00645340       0.00465845      -0.04595094
Cu      11.25562782       3.77162690      13.60888794  T      -0.00124189       0.00767474       0.00508962
Cu       1.27275183       6.24623621      13.59202837  T      -0.00150863       0.00923050      -0.00375517
Cu       3.78352655       6.25801397      13.61464717  T      -0.01308183      -0.00022470      -0.02120058
Cu       6.26797265       6.23709189      13.58580395  T      -0.01068655      -0.00578115      -0.03829333
Cu       8.76935826       6.23350029      13.60746654  T       0.00609151      -0.00808792      -0.04447298
Cu      11.25495275       6.24175666      13.60895476  T      -0.00164004      -0.01095684       0.00348618
Cu       1.26175163       8.76360930      13.58640328  T      -0.00235338       0.00794392       0.00096468
Cu       3.77396310       8.74588334      13.61590253  T      -0.00533753       0.02031155      -0.00957976
Cu       6.26126178       8.74068179      13.60651667  T       0.00598060       0.00893280      -0.00098074
Cu       8.75240436       8.73867373      13.60558476  T      -0.00249707       0.01187978       0.00507700
Cu      11.26619549       8.75303087      13.60036919  T       0.00277857       0.01183610      -0.01364276
Cu       1.24817432      11.26352751      13.60980744  T      -0.00428124       0.00143115      -0.00123182
Cu       3.74068869      11.26377306      13.58418716  T      -0.01081109       0.00134691       0.00346391
Cu       6.25050475      11.26402436      13.57149889  T      -0.00417449       0.00283437      -0.00204803
Cu       8.76012145      11.26519390      13.57364945  T       0.00345143       0.00140549      -0.00994809
Cu      11.27482669      11.26440682      13.58195206  T       0.01857300       0.00167304      -0.00490271
Cu      12.50772526       0.00633868      15.39912208  T       0.00489608       0.00089273      -0.08278235
Cu       2.50638466      12.51426117      15.39975736  T      -0.00575880       0.00757909      -0.08416979
Cu       5.00221630      12.48319306      15.37719070  T       0.01493706       0.00753545      -0.05142803
Cu       7.50382993      12.49153015      15.35690520  T      -0.00363398       0.00555527      -0.05481045
Cu      10.01456411      12.48751567      15.36696683  T      -0.01646202       0.00724749      -0.06207507
Cu       0.05059076       2.50312109      15.37593407  T       0.00072328       0.01495638      -0.05697864
Cu       2.51158321       2.48305028      15.38004513  T      -0.01576370       0.00754664      -0.04440311
Cu       4.99777792       2.41632887      15.50187908  T      -0.04114251      -0.07102335      -0.08800504
Cu       7.48057928       2.48382685      15.43854300  T      -0.03242501      -0.12850257      -0.15430359
Cu      10.10559546       2.42844967      15.41842683  T       0.04229194      -0.05195793      -0.07609368
Cu       0.06369387       5.00340861      15.38611921  T      -0.02921531       0.00130823      -0.05615541
Cu       2.41825295       5.00668308      15.48133947  T      -0.05627016      -0.00000300      -0.08686009
Pd       4.94009333       5.00542981      15.64703114  T      -0.03098116      -0.00064926      -0.14005487
Y        7.56609895       5.00752885      17.25728805  T       0.01639042       0.00001379       0.09458498
Cu      10.28273557       5.01401258      15.74147389  T       0.02254101       0.00305943      -0.07722034
Cu       0.04864815       7.50645023      15.37414897  T      -0.00078841      -0.01734633      -0.05703103
Cu       2.50908155       7.53028459      15.37993908  T      -0.01700410      -0.00510660      -0.04459682
Cu       4.99446341       7.59467818      15.49995402  T      -0.04190544       0.07262392      -0.08936765
Cu       7.47576245       7.53297710      15.43676069  T      -0.03241987       0.13291267      -0.15641160
Cu      10.10367501       7.59189081      15.41812311  T       0.04064989       0.04998129      -0.07756649
Cu      12.50748397      10.00334991      15.39887228  T       0.00456434      -0.00020152      -0.08238922
Cu       2.50636339      10.01427151      15.39961284  T      -0.00479096      -0.00860971      -0.08507575
Cu       5.00228025      10.04275675      15.37669412  T       0.01600367      -0.01088837      -0.05033903
Cu       7.50370002      10.03877530      15.35639875  T      -0.00419754      -0.00812493      -0.05564595
Cu      10.01455109      10.04606563      15.36695974  T      -0.01577119      -0.00837466      -0.06194913
O        6.16368213       3.39145645      16.70299863  T      -0.09813878       0.00311826       0.13111194
O        6.16122490       6.62116343      16.70101663  T      -0.09896108      -0.00356895       0.13231680
O        8.85074343       6.44482229      16.26751132  T       0.07369926       0.05431754      -0.01482800
O        8.85646411       3.57866738      16.26792893  T       0.07506632      -0.05775068      -0.00895861
C       10.79797856       5.04232786      17.67607575  T       0.28324386       0.00835845       0.22082928
O        9.80372883       5.02441305      18.41843645  T       0.04527963       0.00037835       0.08067442
H       11.79679633       5.09091369      18.20119443  T      -0.25039794      -0.02395317      -0.13847889
C        3.46699291       5.00954955      17.10445550  T      -0.05658096      -0.00203993      -0.47554058
O        3.57644319       5.01249800      18.26772815  T      -0.04895253       0.00069431       0.51246488
109
Lattice="12.51515363 0.0 0.0 0.0 12.51515363 0.0 0.0 0.0 25.30973" Properties=species:S:1:pos:R:3:move_mask:L:1:forces:R:3 energy=-452.91913374 stress="0.007213338361053684 1.189988029564437e-05 0.0003319295657519059 1.189988029564437e-05 0.008072239728190647 3.133872966822411e-05 0.0003319295657519059 3.133872966822411e-05 0.0032466341116641016" free_energy=-452.91854537 pbc="T T T"
Cu       1.25151999       1.25151999      10.00000011  F      -0.00515380      -0.00683913      -0.07766870
Cu       3.75454997       1.25151999      10.00000011  F       0.01424534       0.00968149      -0.06879267
Cu       6.25757994       1.25151999      10.00000011  F      -0.00625249       0.01946683      -0.06327566
Cu       8.76061004       1.25151999      10.00000011  F       0.00656819       0.01703282      -0.05585277
Cu      11.26364002       1.25151999      10.00000011  F      -0.00643876       0.00151192      -0.07217197
Cu       1.25151999       3.75454997      10.00000011  F      -0.01597854       0.01263878      -0.06677501
Cu       3.75454997       3.75454997      10.00000011  F       0.02729900      -0.00828323      -0.05224659
Cu       6.25757994       3.75454997      10.00000011  F      -0.02837178      -0.02001784      -0.07880638
Cu       8.76061004       3.75454997      10.00000011  F       0.01551384      -0.02501782      -0.07576772
Cu      11.26364002       3.75454997      10.00000011  F      -0.00115496      -0.00238761      -0.05618632
Cu       1.25151999       6.25757994      10.00000011  F      -0.01631122      -0.01123385      -0.06804070
Cu       3.75454997       6.25757994      10.00000011  F       0.02869471       0.00910301      -0.05283121
Cu       6.25757994       6.25757994      10.00000011  F      -0.02848610       0.02202137      -0.08180881
Cu       8.76061004       6.25757994      10.00000011  F       0.01429818       0.02558437      -0.07656436
Cu      11.26364002       6.25757994      10.00000011  F      -0.00079675       0.00382915      -0.05780806
Cu       1.25151999       8.76061004      10.00000011  F      -0.00480663       0.00358835      -0.07644948
Cu       3.75454997       8.76061004      10.00000011  F       0.01353137      -0.01216993      -0.06784799
Cu       6.25757994       8.76061004      10.00000011  F      -0.00600723      -0.02329711      -0.06140437
Cu       8.76061004       8.76061004      10.00000011  F       0.00694146      -0.01898426      -0.05485807
Cu      11.26364002       8.76061004      10.00000011  F      -0.00656477      -0.00485852      -0.07089565
Cu       1.25151999      11.26364002      10.00000011  F      -0.00111424       0.00174204      -0.00894272
Cu       3.75454997      11.26364002      10.00000011  F      -0.01265665       0.00153680      -0.07115518
Cu       6.25757994      11.26364002      10.00000011  F      -0.00153486       0.00166133      -0.06671313
Cu       8.76061004      11.26364002      10.00000011  F       0.00440853       0.00118624      -0.06927393
Cu      11.26364002      11.26364002      10.00000011  F       0.01345810       0.00175546      -0.07112663
Cu       0.00000000       0.00000000      11.76991004  F      -0.00420709       0.03316338       0.11428358
Cu       2.50302998       0.00000000      11.76991004  F       0.03481420       0.02460199       0.11774016
Cu       5.00605995       0.00000000      11.76991004  F       0.00621082       0.08933195       0.10209586
Cu       7.50909005       0.00000000      11.76991004  F      -0.00791707       0.04434932       0.07904118
Cu      10.01212003       0.00000000      11.76991004  F      -0.01617303       0.09736581       0.10406033
Cu       0.00000000       2.50302998      11.76991004  F      -0.00164401       0.05409112       0.12573623
Cu       2.50302998       2.50302998      11.76991004  F       0.05887587       0.04270934       0.12953639
Cu       5.00605995       2.50302998      11.76991004  F      -0.01989421      -0.04357706       0.06320053
Cu       7.50909005       2.50302998      11.76991004  F       0.03266972       0.03634345       0.17055200
Cu      10.01212003       2.50302998      11.76991004  F       0.02002820      -0.02100657       0.13473390
Cu       0.00000000       5.00605995      11.76991004  F      -0.01774157       0.00160607       0.08596127
Cu       2.50302998       5.00605995      11.76991004  F       0.10932496       0.00092781       0.15334410
Cu       5.00605995       5.00605995      11.76991004  F      -0.02740748       0.00170575       0.18319096
Cu       7.50909005       5.00605995      11.76991004  F       0.04649041       0.00308466       0.24680888
Cu      10.01212003       5.00605995      11.76991004  F      -0.00944011       0.00335969       0.25017739
Cu       0.00000000       7.50909005      11.76991004  F      -0.00281033      -0.05769194       0.12677368
Cu       2.50302998       7.50909005      11.76991004  F       0.05604920      -0.04667781       0.12997264
Cu       5.00605995       7.50909005      11.76991004  F      -0.02021492       0.03927583       0.06301127
Cu       7.50909005       7.50909005      11.76991004  F       0.03079967      -0.03851050       0.17169648
Cu      10.01212003       7.50909005      11.76991004  F       0.01986968       0.02125090       0.13498948
Cu       0.00000000      10.01212003      11.76991004  F      -0.00435428      -0.02887764       0.11055343
Cu       2.50302998      10.01212003      11.76991004  F       0.03549638      -0.02299902       0.11591858
Cu       5.00605995      10.01212003      11.76991004  F       0.00343202      -0.08595371       0.09891910
Cu       7.50909005      10.01212003      11.76991004  F      -0.00744010      -0.03770594       0.07553978
Cu      10.01212003      10.01212003      11.76991004  F      -0.01814389      -0.09108288       0.10251528
Cu       1.26230455       1.24813214      13.58677432  T      -0.00160885      -0.00968347      -0.00145981
Cu       3.77507858       1.26617461      13.61633558  T      -0.00641858      -0.01796589      -0.01391756
Cu       6.26238526       1.27225235      13.60768952  T       0.00361318      -0.00732486      -0.00821503
Cu       8.75310784       1.27666982      13.60634583  T      -0.00134757      -0.00982976      -0.00056556
Cu      11.26680460       1.26062514      13.60092676  T       0.00360835      -0.01158036      -0.01743246
Cu       1.27364316       3.76479838      13.59195598  T      -0.00165699      -0.00962026      -0.00869295
Cu       3.78421414       3.75398729      13.61461300  T      -0.01190821       0.00024624      -0.02278637
Cu       6.26841056       3.77473391      13.58570676  T      -0.00882101       0.00223120      -0.03755192
Cu       8.76976500       3.78179658      13.60698389  T       0.00543098       0.00391038      -0.04251299
Cu      11.25561580       3.77170099      13.60893704  T      -0.00124592       0.00637416       0.00146835
Cu       1.27273731       6.24632532      13.59199217  T      -0.00224596       0.00833551      -0.00764749
Cu       3.78340040       6.25801172      13.61444266  T      -0.01250199       0.00125788      -0.02434969
Cu       6.26786953       6.23703607      13.58543442  T      -0.00928335      -0.00446188      -0.03705337
Cu       8.76941696       6.23342219      13.60703754  T       0.00500364      -0.00714370      -0.04103764
Cu      11.25493686       6.24165091      13.60898842  T      -0.00163907      -0.00949410      -0.00012246
Cu       1.26172885       8.76368589      13.58641264  T      -0.00217043       0.00682513      -0.00208192
Cu       3.77391154       8.74607932      13.61580990  T      -0.00556856       0.01901269      -0.01275263
Cu       6.26131947       8.74076802      13.60650705  T       0.00374329       0.00957652      -0.00655328
Cu       8.75238033       8.73878837      13.60563387  T      -0.00151814       0.01169522      -0.00020828
Cu      11.26622227       8.75314513      13.60023758  T       0.00332715       0.01123801      -0.01694007
Cu       1.24813302      11.26354127      13.60979554  T      -0.00353970       0.00122529      -0.00497646
Cu       3.74058443      11.26378607      13.58422057  T      -0.00954892       0.00123700       0.00054923
Cu       6.25046445      11.26405177      13.57147889  T      -0.00421597       0.00264178      -0.00479912
Cu       8.76015474      11.26520742      13.57355353  T       0.00325524       0.00134052      -0.01215854
Cu      11.27500591      11.26442297      13.58190473  T       0.01655961       0.00151670      -0.00745602
Cu      12.50777257       0.00634731      15.39832356  T       0.00401566       0.00139122      -0.07862664
Cu       2.50632909      12.51433426      15.39894517  T      -0.00489612       0.00713445      -0.08020892
Cu       5.00236035      12.48326577      15.37669462  T       0.01398720       0.00474082      -0.04920164
Cu       7.50379489      12.49158372      15.35637648  T      -0.00346098       0.00198333      -0.05200531
Cu      10.01440529      12.48758563      15.36636775  T      -0.01531015       0.00504814      -0.05940844
Cu       0.05059776       2.50326539      15.37538434  T       0.00088996       0.01422409      -0.05470277
Cu       2.51143102       2.48312312      15.37961663  T      -0.01537002       0.00804455      -0.04116854
Cu       4.99738094       2.41564367      15.50102994  T      -0.03123643      -0.05809723      -0.07483353
Cu       7.48026640       2.48258697      15.43705428  T      -0.02920785      -0.10566509      -0.13159131
Cu      10.10600345       2.42794831      15.41769259  T       0.03665347      -0.04517994      -0.06978303
Cu       0.06341203       5.00342126      15.38557733  T      -0.02837629       0.00116356      -0.05265722
Cu       2.41771004       5.00668295      15.48050122  T      -0.06196946      -0.00000036      -0.08843012
Pd       4.93979446       5.00542355      15.64567985  T      -0.02733131      -0.00019610      -0.09648188
Y        7.56625702       5.00752898      17.25820072  T       0.01440661      -0.00036316       0.08134533
Cu      10.28295308       5.01404212      15.74072877  T       0.02060187       0.00316306      -0.05337951
Cu       0.04864065       7.50628278      15.37359874  T      -0.00063814      -0.01646919      -0.05478797
Cu       2.50891748       7.53023528      15.37950881  T      -0.01672384      -0.00582193      -0.04130240
Cu       4.99405904       7.59537891      15.49909172  T      -0.03143347       0.05912622      -0.07545107
Cu       7.47544969       7.53425953      15.43525147  T      -0.02924597       0.10993963      -0.13357851
Cu      10.10406723       7.59237302      15.41737470  T       0.03530592       0.04362045      -0.07144203
Cu      12.50752802      10.00334803      15.39807730  T       0.00370869      -0.00066340      -0.07836930
Cu       2.50631708      10.01418840      15.39879204  T      -0.00397400      -0.00800090      -0.08114853
Cu       5.00243469      10.04265174      15.37620842  T       0.01509230      -0.00783427      -0.04820402
Cu       7.50365947      10.03869696      15.35586193  T      -0.00392840      -0.00417524      -0.05281551
Cu      10.01439891      10.04598478      15.36636193  T      -0.01462812      -0.00611284      -0.05930929
O        6.16273523       3.39148649      16.70426361  T      -0.09302469      -0.00099022       0.11025028
O        6.16027012       6.62112889      16.70229325  T      -0.09403309       0.00055164       0.11141287
O        8.85145454       6.44534642      16.26736807  T       0.06151934       0.05443959      -0.01785161
O        8.85718836       3.57811008      16.26784237  T       0.06373491      -0.05800438      -0.01196246
C       10.80071149       5.04240846      17.67820632  T       0.08582039       0.00050046       0.14966111
O        9.80416573       5.02441668      18.41921498  T       0.10246961       0.00171579       0.04781556
H       11.79438040       5.09068254      18.19985833  T      -0.12119778      -0.01752860      -0.05976109
C        3.46644700       5.00952990      17.09986710  T       0.03368608       0.00005525       0.38440099
O        3.57597087       5.01250475      18.27267265  T      -0.12521109      -0.00163400      -0.35425783
109
Lattice="12.51515363 0.0 0.0 0.0 12.51515363 0.0 0.0 0.0 25.30973" Properties=species:S:1:pos:R:3:move_mask:L:1:forces:R:3 energy=-452.92324877000004 stress="0.007199497259072725 1.1439618929683487e-05 0.00031951723259099004 1.1439618929683487e-05 0.008064816782526853 3.0104889419692127e-05 0.00031951723259099004 3.0104889419692127e-05 0.0031432678736039643" free_energy=-452.92265587 pbc="T T T"
Cu       1.25151999       1.25151999      10.00000011  F      -0.00554058      -0.00696244      -0.07774534
Cu       3.75454997       1.25151999      10.00000011  F       0.01402825       0.00968367      -0.06908180
Cu       6.25757994       1.25151999      10.00000011  F      -0.00610780       0.01944692      -0.06372072
Cu       8.76061004       1.25151999      10.00000011  F       0.00695540       0.01698443      -0.05610721
Cu      11.26364002       1.25151999      10.00000011  F      -0.00656783       0.00147778      -0.07226718
Cu       1.25151999       3.75454997      10.00000011  F      -0.01627291       0.01267718      -0.06721422
Cu       3.75454997       3.75454997      10.00000011  F       0.02708349      -0.00823422      -0.05278304
Cu       6.25757994       3.75454997      10.00000011  F      -0.02825887      -0.01989422      -0.07930110
Cu       8.76061004       3.75454997      10.00000011  F       0.01582174      -0.02505719      -0.07627088
Cu      11.26364002       3.75454997      10.00000011  F      -0.00127986      -0.00242505      -0.05656442
Cu       1.25151999       6.25757994      10.00000011  F      -0.01661225      -0.01122182      -0.06844165
Cu       3.75454997       6.25757994      10.00000011  F       0.02846241       0.00908691      -0.05335480
Cu       6.25757994       6.25757994      10.00000011  F      -0.02838536       0.02191152      -0.08231850
Cu       8.76061004       6.25757994      10.00000011  F       0.01461474       0.02564203      -0.07705499
Cu      11.26364002       6.25757994      10.00000011  F      -0.00089951       0.00390558      -0.05814578
Cu       1.25151999       8.76061004      10.00000011  F      -0.00520753       0.00368196      -0.07646187
Cu       3.75454997       8.76061004      10.00000011  F       0.01328972      -0.01219755      -0.06813143
Cu       6.25757994       8.76061004      10.00000011  F      -0.00585945      -0.02329138      -0.06187265
Cu       8.76061004       8.76061004      10.00000011  F       0.00734297      -0.01894958      -0.05514877
Cu      11.26364002       8.76061004      10.00000011  F      -0.00667513      -0.00484896      -0.07094899
Cu       1.25151999      11.26364002      10.00000011  F      -0.00158799       0.00171001      -0.00905603
Cu       3.75454997      11.26364002      10.00000011  F      -0.01297588       0.00151982      -0.07141940
Cu       6.25757994      11.26364002      10.00000011  F      -0.00135883       0.00165917      -0.06709161
Cu       8.76061004      11.26364002      10.00000011  F       0.00475569       0.00117327      -0.06945526
Cu      11.26364002      11.26364002      10.00000011  F       0.01346018       0.00173058      -0.07099612
Cu       0.00000000       0.00000000      11.76991004  F      -0.00431623       0.03306005       0.11355416
Cu       2.50302998       0.00000000      11.76991004  F       0.03438645       0.02438813       0.11730787
Cu       5.00605995       0.00000000      11.76991004  F       0.00607522       0.08915011       0.10192088
Cu       7.50909005       0.00000000      11.76991004  F      -0.00761586       0.04418119       0.07876817
Cu      10.01212003       0.00000000      11.76991004  F      -0.01599746       0.09709481       0.10366019
Cu       0.00000000       2.50302998      11.76991004  F      -0.00179277       0.05390763       0.12554474
Cu       2.50302998       2.50302998      11.76991004  F       0.05853718       0.04252493       0.12937072
Cu       5.00605995       2.50302998      11.76991004  F      -0.02000180      -0.04370082       0.06325608
Cu       7.50909005       2.50302998      11.76991004  F       0.03263869       0.03616292       0.17045849
Cu      10.01212003       2.50302998      11.76991004  F       0.02028901      -0.02142947       0.13428765
Cu       0.00000000       5.00605995      11.76991004  F      -0.01779657       0.00163145       0.08574257
Cu       2.50302998       5.00605995      11.76991004  F       0.10904778       0.00095729       0.15297547
Cu       5.00605995       5.00605995      11.76991004  F      -0.02789470       0.00171136       0.18252804
Cu       7.50909005       5.00605995      11.76991004  F       0.04643678       0.00309387       0.24590166
Cu      10.01212003       5.00605995      11.76991004  F      -0.00892200       0.00337084       0.24926023
Cu       0.00000000       7.50909005      11.76991004  F      -0.00296842      -0.05750792       0.12654716
Cu       2.50302998       7.50909005      11.76991004  F       0.05568602      -0.04647041       0.12976427
Cu       5.00605995       7.50909005      11.76991004  F      -0.02031352       0.03944216       0.06304098
Cu       7.50909005       7.50909005      11.76991004  F       0.03077873      -0.03832415       0.17161738
Cu      10.01212003       7.50909005      11.76991004  F       0.02013221       0.02168883       0.13454181
Cu       0.00000000      10.01212003      11.76991004  F      -0.00447157      -0.02884328       0.10984302
Cu       2.50302998      10.01212003      11.76991004  F       0.03505216      -0.02285064       0.11551235
Cu       5.00605995      10.01212003      11.76991004  F       0.00331466      -0.08580031       0.09876287