109
Lattice="12.51515363 0.0 0.0 0.0 12.51515363 0.0 0.0 0.0 25.30973" Properties=species:S:1:pos:R:3:move_mask:L:1:forces:R:3 energy=-452.53797292999997 stress="0.008330302007113148 4.949398148152032e-06 0.0004956419284182829 4.949398148152032e-06 0.008760691853680556 2.6417093752664e-05 0.0004956419284182829 2.6417093752664e-05 0.003206349895078934" free_energy=-452.54351374 pbc="T T T"
Cu       1.25151999       1.25151999      10.00000011  F       0.00188176      -0.00440940      -0.06887036
Cu       3.75454997       1.25151999      10.00000011  F       0.00148413       0.01460296      -0.06241994
Cu       6.25757994       1.25151999      10.00000011  F      -0.00175347       0.01729826      -0.05678555
Cu       8.76061004       1.25151999      10.00000011  F       0.01131739       0.00874794      -0.05626273
Cu      11.26364002       1.25151999      10.00000011  F      -0.01360115      -0.00507837      -0.07345728
Cu       1.25151999       3.75454997      10.00000011  F      -0.00562226       0.00764343      -0.06840767
Cu       3.75454997       3.75454997      10.00000011  F       0.02161418      -0.01376007      -0.05120343
Cu       6.25757994       3.75454997      10.00000011  F      -0.02968164      -0.02073898      -0.08389243
Cu       8.76061004       3.75454997      10.00000011  F       0.02069117      -0.02117708      -0.07210136
Cu      11.26364002       3.75454997      10.00000011  F      -0.00504826       0.00236501      -0.06175716
Cu       1.25151999       6.25757994      10.00000011  F      -0.00603365      -0.00642058      -0.07022512
Cu       3.75454997       6.25757994      10.00000011  F       0.02292727       0.01433181      -0.05179736
Cu       6.25757994       6.25757994      10.00000011  F      -0.02970453       0.02258360      -0.08694302
Cu       8.76061004       6.25757994      10.00000011  F       0.01945718       0.02170888      -0.07278132
Cu      11.26364002       6.25757994      10.00000011  F      -0.00465737      -0.00106870      -0.06345975
Cu       1.25151999       8.76061004      10.00000011  F       0.00215576       0.00094157      -0.06792981
Cu       3.75454997       8.76061004      10.00000011  F       0.00079650      -0.01726968      -0.06144092
Cu       6.25757994       8.76061004      10.00000011  F      -0.00174782      -0.02167501      -0.05478530
Cu       8.76061004       8.76061004      10.00000011  F       0.01198353      -0.01138505      -0.05523019
Cu      11.26364002       8.76061004      10.00000011  F      -0.01388073       0.00154036      -0.07238318
Cu       1.25151999      11.26364002      10.00000011  F       0.00174059       0.00171209      -0.01104721
Cu       3.75454997      11.26364002      10.00000011  F      -0.01503163       0.00162231      -0.06587932
Cu       6.25757994      11.26364002      10.00000011  F       0.00231263       0.00209887      -0.06180431
Cu       8.76061004      11.26364002      10.00000011  F       0.00386836       0.00160948      -0.06774450
Cu      11.26364002      11.26364002      10.00000011  F       0.00382312       0.00182150      -0.06042292
Cu       0.00000000       0.00000000      11.76991004  F      -0.01063211       0.03881747       0.14681486
Cu       2.50302998       0.00000000      11.76991004  F       0.03786099       0.04091300       0.11510170
Cu       5.00605995       0.00000000      11.76991004  F       0.05319767       0.08946002       0.12670096
Cu       7.50909005       0.00000000      11.76991004  F       0.02521345       0.06405168       0.11996320
Cu      10.01212003       0.00000000      11.76991004  F      -0.01823935       0.09212829       0.14156742
Cu       0.00000000       2.50302998      11.76991004  F      -0.02323938       0.06318923       0.15203750
Cu       2.50302998       2.50302998      11.76991004  F       0.05054774       0.03930531       0.13451672
Cu       5.00605995       2.50302998      11.76991004  F       0.01189899      -0.03013356       0.09899165
Cu       7.50909005       2.50302998      11.76991004  F       0.00131142      -0.01853389       0.12984780
Cu      10.01212003       2.50302998      11.76991004  F       0.05657710      -0.07587588       0.06984294
Cu       0.00000000       5.00605995      11.76991004  F      -0.04558997       0.00101350       0.11315915
Cu       2.50302998       5.00605995      11.76991004  F       0.06970774       0.00082906       0.17949062
Cu       5.00605995       5.00605995      11.76991004  F      -0.00214401       0.00118704       0.21827282
Cu       7.50909005       5.00605995      11.76991004  F      -0.04319217       0.00122468       0.16301154
Cu      10.01212003       5.00605995      11.76991004  F       0.04646258       0.00031551       0.08452070
Cu       0.00000000       7.50909005      11.76991004  F      -0.02256657      -0.06627144       0.15220383
Cu       2.50302998       7.50909005      11.76991004  F       0.05042391      -0.04053287       0.13362248
Cu       5.00605995       7.50909005      11.76991004  F       0.01397668       0.02641857       0.09849966
Cu       7.50909005       7.50909005      11.76991004  F       0.00163211       0.01345088       0.13010716
Cu      10.01212003       7.50909005      11.76991004  F       0.05902695       0.07284667       0.06923480
Cu       0.00000000      10.01212003      11.76991004  F      -0.00955753      -0.03644661       0.14349372
Cu       2.50302998      10.01212003      11.76991004  F       0.03929360      -0.03857920       0.11358834
Cu       5.00605995      10.01212003      11.76991004  F       0.05280556      -0.08653294       0.12415478
Cu       7.50909005      10.01212003      11.76991004  F       0.02692401      -0.06086931       0.11659015
Cu      10.01212003      10.01212003      11.76991004  F      -0.01900114      -0.09068059       0.13994290
Cu       1.27119582       1.25083704      13.58900234  T      -0.00329041      -0.01549056      -0.00186526
Cu       3.79102025       1.26360725      13.61223211  T      -0.00646274      -0.01375884      -0.01954291
Cu       6.29650983       1.28065039      13.61865952  T      -0.00072969      -0.00634716      -0.00761612
Cu       8.77362568       1.28215359      13.62558983  T      -0.00519337      -0.00754169      -0.00320333
Cu      11.27146312       1.26350450      13.61439053  T       0.00752544      -0.01108378      -0.01813920
Cu       1.26305696       3.77016187      13.60319553  T      -0.00397222      -0.00448202      -0.01063857
Cu       3.77039641       3.75643901      13.60879505  T      -0.02181110       0.00184007      -0.01813786
Cu       6.27076966       3.77436496      13.59718700  T      -0.00857515       0.01283763      -0.02510148
Cu       8.75143669       3.76386325      13.56287814  T      -0.00884579       0.00031124      -0.04416702
Cu      11.23789134       3.75922100      13.60896463  T      -0.00497132       0.00269310       0.00239586
Cu       1.26341727       6.24275499      13.60263998  T      -0.00366315       0.00192673      -0.01145481
Cu       3.77082918       6.25600178      13.60831670  T      -0.02313221      -0.00223665      -0.01925070
Cu       6.27134123       6.23710966      13.59688708  T      -0.00888175      -0.01456830      -0.02450206
Cu       8.75225906       6.24793326      13.56249318  T      -0.00902536      -0.00172138      -0.04402079
Cu      11.23862285       6.25244322      13.60871912  T      -0.00498310      -0.00321020       0.00028753
Cu       1.27173647       8.76190048      13.58902689  T      -0.00311565       0.01295122      -0.00292000
Cu       3.79123401       8.74900487      13.61170921  T      -0.00652059       0.01417492      -0.01682033
Cu       6.29721293       8.73178840      13.61776001  T      -0.00133553       0.00919578      -0.00711678
Cu       8.77454179       8.73023652      13.62496772  T      -0.00557017       0.01329861      -0.00318795
Cu      11.27232566       8.74835170      13.61417514  T       0.00636723       0.01169965      -0.01696169
Cu       1.24649178      11.26393050      13.61010534  T      -0.01433432       0.00162447      -0.00429883
Cu       3.74058556      11.26390259      13.58273590  T      -0.01084822       0.00168287      -0.00126258
Cu       6.25622243      11.26381561      13.57756411  T       0.00066155       0.00216607      -0.01192396
Cu       8.76215992      11.26376567      13.58406593  T      -0.00350088       0.00144664      -0.01162063
Cu      11.27053462      11.26349284      13.59025416  T       0.02080199       0.00155869      -0.00211107
Cu      12.51035595       0.00804549      15.40269658  T       0.00348343       0.00213709      -0.08920422
Cu       2.50571010      12.51451986      15.39753238  T       0.00291946       0.00933497      -0.08599786
Cu       5.00360097      12.48162015      15.37147626  T       0.00719331       0.00252673      -0.04395308
Cu       7.50846730      12.50209982      15.36808501  T      -0.00312303       0.00575672      -0.05690831
Cu      10.01635841      12.49551598      15.38066294  T      -0.01536513       0.00691870      -0.06075776
Cu       0.08175687       2.50989066      15.38303623  T       0.01735320       0.00679720      -0.04845423
Cu       2.54690748       2.48453821      15.37680320  T      -0.00404464       0.00687958      -0.04337164
Cu       5.04153278       2.41213567      15.46811615  T      -0.04603442      -0.06661106      -0.08515626
Cu       7.59201095       2.53432236      15.49224215  T       0.02171047      -0.10915043      -0.13849937
Cu      10.13114977       2.45610366      15.47069572  T       0.03603462      -0.05350719      -0.07161600
Cu      12.43767044       5.00615544      15.37307432  T      -0.01493890       0.00345873      -0.07393018
Cu       2.32909362       5.00749594      15.53578526  T      -0.07458655       0.00040064      -0.09904842
Pd       4.87508599       5.00594331      15.63730891  T      -0.02624710       0.00101483      -0.11917134
Y        7.51814526       5.00923167      17.34263296  T      -0.03234498       0.00620055       0.19843019
Cu       9.94002048       5.00510354      15.45501685  T       0.10023893       0.00016149      -0.15401697
Cu       0.08366405       7.50222173      15.38313494  T       0.01696506      -0.01243159      -0.04855666
Cu       2.54842557       7.52920841      15.37688343  T      -0.00325788      -0.00356645      -0.04284747
Cu       5.04296013       7.59972705      15.46565099  T      -0.04768510       0.06840661      -0.08288320
Cu       7.59451899       7.47926243      15.48979571  T       0.02155206       0.11141078      -0.13659213
Cu      10.13358172       7.55551777      15.46987746  T       0.03645930       0.05607402      -0.07487860
Cu      12.51027798      10.00400733      15.40278086  T       0.00328014      -0.00100567      -0.08906450
Cu       2.50564502      10.01434973      15.39750428  T       0.00398135      -0.01062258      -0.08710561
Cu       5.00361837      10.04516404      15.37097513  T       0.00890039      -0.00486851      -0.04336220
Cu       7.50851323      10.02580259      15.36761830  T      -0.00128128      -0.00988126      -0.05775953
Cu      10.01635816      10.03108511      15.38053487  T      -0.01582503      -0.00904088      -0.06123075
O        6.20053087       3.39849047      16.62237424  T      -0.12198236       0.02493280       0.11083298
O        6.20418755       6.61567691      16.61978201  T      -0.12577573      -0.02961621       0.11234186
O        9.01972867       6.43184645      16.52913142  T       0.05659389       0.09023961       0.10492232
O        9.01800283       3.57945984      16.53152192  T       0.05660175      -0.08785086       0.10787879
C        7.46755301       5.12065946      19.90765818  T       0.44618094       0.06188113       0.06130600
O        6.36090493       5.00831856      20.39819340  T      -0.11711296      -0.02027922       0.03492878
H        8.35056655       5.28903270      20.63706612  T      -0.25929360      -0.05166241      -0.16288281
C        3.45959884       5.01906532      17.12918589  T      -0.09846024      -0.00506939      -0.48368978
O        3.62032782       5.02963950      18.28403875  T      -0.11067217       0.00332468       0.49723322
109
Lattice="12.51515363 0.0 0.0 0.0 12.51515363 0.0 0.0 0.0 25.30973" Properties=species:S:1:pos:R:3:move_mask:L:1:forces:R:3 energy=-452.53863421 stress="0.00847984221815453 1.1402868923950286e-05 0.0004644313931059953 1.1402868923950286e-05 0.008822770870880505 2.3009960026499472e-05 0.0004644313931059953 2.3009960026499472e-05 0.003622626809459933" free_energy=-452.54397415 pbc="T T T"
Cu       1.25151999       1.25151999      10.00000011  F       0.00169343      -0.00434810      -0.06903963
Cu       3.75454997       1.25151999      10.00000011  F       0.00141833       0.01452915      -0.06273862
Cu       6.25757994       1.25151999      10.00000011  F      -0.00174437       0.01734418      -0.05700523
Cu       8.76061004       1.25151999      10.00000011  F       0.01117509       0.00865050      -0.05648276
Cu      11.26364002       1.25151999      10.00000011  F      -0.01374197      -0.00518797      -0.07360717
Cu       1.25151999       3.75454997      10.00000011  F      -0.00591910       0.00751795      -0.06907389
Cu       3.75454997       3.75454997      10.00000011  F       0.02163509      -0.01380737      -0.05158525
Cu       6.25757994       3.75454997      10.00000011  F      -0.02968634      -0.02076440      -0.08419409
Cu       8.76061004       3.75454997      10.00000011  F       0.02045915      -0.02116079      -0.07217474
Cu      11.26364002       3.75454997      10.00000011  F      -0.00506542       0.00231696      -0.06200182
Cu       1.25151999       6.25757994      10.00000011  F      -0.00633734      -0.00618037      -0.07067951
Cu       3.75454997       6.25757994      10.00000011  F       0.02296519       0.01449857      -0.05213056
Cu       6.25757994       6.25757994      10.00000011  F      -0.02972084       0.02267579      -0.08726102
Cu       8.76061004       6.25757994      10.00000011  F       0.01923728       0.02176575      -0.07286621
Cu      11.26364002       6.25757994      10.00000011  F      -0.00468435      -0.00089899      -0.06364093
Cu       1.25151999       8.76061004      10.00000011  F       0.00196095       0.00086996      -0.06803633
Cu       3.75454997       8.76061004      10.00000011  F       0.00067189      -0.01723449      -0.06173895
Cu       6.25757994       8.76061004      10.00000011  F      -0.00175818      -0.02173522      -0.05502160
Cu       8.76061004       8.76061004      10.00000011  F       0.01186257      -0.01130602      -0.05546244
Cu      11.26364002       8.76061004      10.00000011  F      -0.01396250       0.00160838      -0.07249917
Cu       1.25151999      11.26364002      10.00000011  F       0.00163827       0.00165126      -0.01130910
Cu       3.75454997      11.26364002      10.00000011  F      -0.01517194       0.00158544      -0.06603474
Cu       6.25757994      11.26364002      10.00000011  F       0.00227718       0.00208334      -0.06213931
Cu       8.76061004      11.26364002      10.00000011  F       0.00393497       0.00159452      -0.06785483
Cu      11.26364002      11.26364002      10.00000011  F       0.00350864       0.00178143      -0.06030262
Cu       0.00000000       0.00000000      11.76991004  F      -0.01070287       0.03896332       0.14519707
Cu       2.50302998       0.00000000      11.76991004  F       0.03754568       0.04085678       0.11376609
Cu       5.00605995       0.00000000      11.76991004  F       0.05316304       0.08934621       0.12569054
Cu       7.50909005       0.00000000      11.76991004  F       0.02511373       0.06411423       0.11885051
Cu      10.01212003       0.00000000      11.76991004  F      -0.01827910       0.09206920       0.14053263
Cu       0.00000000       2.50302998      11.76991004  F      -0.02348604       0.06322542       0.15096053
Cu       2.50302998       2.50302998      11.76991004  F       0.05005883       0.03907394       0.13358558
Cu       5.00605995       2.50302998      11.76991004  F       0.01159718      -0.03039266       0.09813562
Cu       7.50909005       2.50302998      11.76991004  F       0.00124462      -0.01914405       0.12832698
Cu      10.01212003       2.50302998      11.76991004  F       0.05675549      -0.07610485       0.06893231
Cu       0.00000000       5.00605995      11.76991004  F      -0.04608518       0.00100553       0.11212875
Cu       2.50302998       5.00605995      11.76991004  F       0.06903561       0.00081862       0.17846764
Cu       5.00605995       5.00605995      11.76991004  F      -0.00260854       0.00118958       0.21697744
Cu       7.50909005       5.00605995      11.76991004  F      -0.04357302       0.00122644       0.16093533
Cu      10.01212003       5.00605995      11.76991004  F       0.04708101       0.00029924       0.08290252
Cu       0.00000000       7.50909005      11.76991004  F      -0.02281965      -0.06629433       0.15109458
Cu       2.50302998       7.50909005      11.76991004  F       0.04995295      -0.04029090       0.13266219
Cu       5.00605995       7.50909005      11.76991004  F       0.01368608       0.02673241       0.09769862
Cu       7.50909005       7.50909005      11.76991004  F       0.00155220       0.01410115       0.12867260
Cu      10.01212003       7.50909005      11.76991004  F       0.05915970       0.07313821       0.06835546
Cu       0.00000000      10.01212003      11.76991004  F      -0.00963483      -0.03656870       0.14195805
Cu       2.50302998      10.01212003      11.76991004  F       0.03899165      -0.03849938       0.11232298
Cu       5.00605995      10.01212003      11.76991004  F       0.05274113      -0.08639341       0.12320325
Cu       7.50909005      10.01212003      11.76991004  F       0.02680293      -0.06086212       0.11546737
Cu      10.01212003      10.01212003      11.76991004  F      -0.01901202      -0.09056986       0.13891400
Cu       1.27116415       1.25068761      13.58898411  T      -0.00285143      -0.01343499      -0.00435401
Cu       3.79095793       1.26347459      13.61204355  T      -0.00674364      -0.01288565      -0.02143702
Cu       6.29650282       1.28058919      13.61858612  T      -0.00130581      -0.00596674      -0.01061771
Cu       8.77357562       1.28208087      13.62555895  T      -0.00391740      -0.00759400      -0.00745536
Cu      11.27153570       1.26339763      13.61421564  T       0.00698554      -0.01018325      -0.02039774
Cu       1.26301867       3.77011857      13.60309277  T      -0.00501122      -0.00480434      -0.01385969
Cu       3.77018590       3.75645678      13.60861991  T      -0.02049354       0.00053325      -0.02117537
Cu       6.27068694       3.77448886      13.59694478  T      -0.00760734       0.01034021      -0.02420583
Cu       8.75135133       3.76386625      13.56245218  T      -0.00864635       0.00019199      -0.04077134
Cu      11.23784341       3.75924703      13.60898766  T      -0.00444340       0.00088607      -0.00158566
Cu       1.26338198       6.24277364      13.60252963  T      -0.00467198       0.00243539      -0.01470815
Cu       3.77060603       6.25598026      13.60813092  T      -0.02170634      -0.00078449      -0.02218140
Cu       6.27125550       6.23696911      13.59665068  T      -0.00794861      -0.01186566      -0.02360229
Cu       8.75217208       6.24791662      13.56206848  T      -0.00879765      -0.00136067      -0.04070797
Cu      11.23857479       6.25241219      13.60872191  T      -0.00448179      -0.00132487      -0.00366761
Cu       1.27170644       8.76202538      13.58899879  T      -0.00279511       0.01111097      -0.00535961
Cu       3.79117119       8.74914166      13.61154672  T      -0.00681735       0.01328549      -0.01906369
Cu       6.29720004       8.73187713      13.61769142  T      -0.00191702       0.00857242      -0.01024039
Cu       8.77448810       8.73036480      13.62493709  T      -0.00429500       0.01286940      -0.00765396
Cu      11.27238711       8.74846459      13.61401139  T       0.00607458       0.01078955      -0.01940237
Cu       1.24635349      11.26394614      13.61006383  T      -0.01268533       0.00137428      -0.00727882
Cu       3.74048081      11.26391873      13.58272350  T      -0.00963791       0.00149373      -0.00353070
Cu       6.25622881      11.26383651      13.57744920  T       0.00002110       0.00205773      -0.01306281
Cu       8.76212613      11.26377969      13.58395380  T      -0.00289743       0.00147047      -0.01335034
Cu      11.27073536      11.26350786      13.59023391  T       0.01773656       0.00141984      -0.00454216
Cu      12.51038949       0.00806614      15.40183579  T       0.00268685       0.00238637      -0.08441854
Cu       2.50573825      12.51460985      15.39670273  T       0.00292400       0.00864113      -0.08180643
Cu       5.00367031      12.48164456      15.37105207  T       0.00679964       0.00028833      -0.04234207
Cu       7.50843713      12.50215539      15.36753579  T      -0.00342342       0.00310244      -0.05424964
Cu      10.01621010      12.49558281      15.38007676  T      -0.01440615       0.00472794      -0.05847001
Cu       0.08192432       2.50995624      15.38256876  T       0.01636497       0.00634416      -0.04691149
Cu       2.54686843       2.48460454      15.37638458  T      -0.00465812       0.00723740      -0.04043064
Cu       5.04108861       2.41149302      15.46729460  T      -0.03409052      -0.05344148      -0.07205281
Cu       7.59222033       2.53326921      15.49090579  T       0.01276757      -0.08833897      -0.11533867
Cu      10.13149745       2.45558741      15.47000477  T       0.02762366      -0.04352560      -0.06168760
Cu      12.43752639       5.00618886      15.37236109  T      -0.01392099       0.00314189      -0.07038062
Cu       2.32837400       5.00749982      15.53482956  T      -0.07688191       0.00030157      -0.09770608
Pd       4.87483268       5.00595307      15.63615909  T      -0.02278273       0.00086980      -0.07718716
Y        7.51783326       5.00929149      17.34454765  T      -0.02863743       0.00589182       0.19212295
Cu       9.94098765       5.00510504      15.45353092  T       0.07852583       0.00037915      -0.13109440
Cu       0.08382775       7.50210171      15.38266646  T       0.01601642      -0.01158844      -0.04701768
Cu       2.54839415       7.52917399      15.37646987  T      -0.00396508      -0.00424977      -0.03990798
Cu       5.04250007       7.60038709      15.46485145  T      -0.03538082       0.05499367      -0.06973380
Cu       7.59472699       7.48033736      15.48847783  T       0.01284409       0.09056513      -0.11400242
Cu      10.13393352       7.55605880      15.46915512  T       0.02799346       0.04560160      -0.06483401
Cu      12.51030964      10.00399757      15.40192159  T       0.00256523      -0.00130293      -0.08447487
Cu       2.50568344      10.01424723      15.39666375  T       0.00384822      -0.00966436      -0.08318104
Cu       5.00370422      10.04511710      15.37055676  T       0.00847705      -0.00235394      -0.04188216
Cu       7.50850084      10.02570723      15.36706098  T      -0.00172111      -0.00686546      -0.05494141
Cu      10.01620547      10.03099788      15.37994414  T      -0.01477642      -0.00654014      -0.05884973
O        6.19935382       3.39873101      16.62344357  T      -0.11324304       0.01503630       0.08679760
O        6.20297408       6.61539119      16.62086603  T      -0.11652541      -0.01948642       0.08805830
O        9.02027483       6.43271713      16.53014355  T       0.05392914       0.08439390       0.08785238
O        9.01854899       3.57861219      16.53256291  T       0.05421634      -0.08252068       0.09064366
C        7.47185797       5.12125643      19.90824967  T       0.07894957       0.01509648       0.08972755
O        6.35977506       5.00812282      20.39853027  T       0.18232039       0.01062764      -0.08811639
H        8.34806477       5.28853423      20.63549439  T      -0.18193949      -0.03560329      -0.08119814
C        3.45864881       5.01901639      17.12451903  T       0.02543100       0.00290974       0.37308379
O        3.61925991       5.02967166      18.28883621  T      -0.22400318      -0.00457060      -0.37271657
109
Lattice="12.51515363 0.0 0.0 0.0 12.51515363 0.0 0.0 0.0 25.30973" Properties=species:S:1:pos:R:3:move_mask:L:1:forces:R:3 energy=-452.54468804 stress="0.008366047036254445 6.221249187260642e-06 0.00044809002995033594 6.221249187260642e-06 0.008747777528423664 2.0304609103431003e-05 0.00044809002995033594 2.0304609103431003e-05 0.0032953716784131473" free_energy=-452.55016914 pbc="T T T"
Cu       1.25151999       1.25151999      10.00000011  F       0.00183557      -0.00447593      -0.06887841
Cu       3.75454997       1.25151999      10.00000011  F       0.00154746       0.01443554      -0.06249864
Cu       6.25757994       1.25151999      10.00000011  F      -0.00168529       0.01725394      -0.05674732
Cu       8.76061004       1.25151999      10.00000011  F       0.01126760       0.00863328      -0.05622602
Cu      11.26364002       1.25151999      10.00000011  F      -0.01361990      -0.00522859      -0.07350270
Cu       1.25151999       3.75454997      10.00000011  F      -0.00568996       0.00752184      -0.06895568
Cu       3.75454997       3.75454997      10.00000011  F       0.02172506      -0.01377043      -0.05139843
Cu       6.25757994       3.75454997      10.00000011  F      -0.02961614      -0.02071934      -0.08397110
Cu       8.76061004       3.75454997      10.00000011  F       0.02058743      -0.02118253      -0.07205864
Cu      11.26364002       3.75454997      10.00000011  F      -0.00503732       0.00229054      -0.06180396
Cu       1.25151999       6.25757994      10.00000011  F      -0.00610492      -0.00617843      -0.07055789
Cu       3.75454997       6.25757994      10.00000011  F       0.02305299       0.01446725      -0.05193494
Cu       6.25757994       6.25757994      10.00000011  F      -0.02965534       0.02263140      -0.08704178
Cu       8.76061004       6.25757994      10.00000011  F       0.01936165       0.02178645      -0.07274653
Cu      11.26364002       6.25757994      10.00000011  F      -0.00464995      -0.00087374      -0.06343887
Cu       1.25151999       8.76061004      10.00000011  F       0.00210403       0.00099100      -0.06785397
Cu       3.75454997       8.76061004      10.00000011  F       0.00080084      -0.01714627      -0.06147757
Cu       6.25757994       8.76061004      10.00000011  F      -0.00170342      -0.02164692      -0.05475875
Cu       8.76061004       8.76061004      10.00000011  F       0.01195682      -0.01129102      -0.05521397
Cu      11.26364002       8.76061004      10.00000011  F      -0.01383952       0.00164736      -0.07239237
Cu       1.25151999      11.26364002      10.00000011  F       0.00174628       0.00164594      -0.01111016
Cu       3.75454997      11.26364002      10.00000011  F      -0.01505432       0.00158004      -0.06574767
Cu       6.25757994      11.26364002      10.00000011  F       0.00228545       0.00207841      -0.06185327
Cu       8.76061004      11.26364002      10.00000011  F       0.00396662       0.00159112      -0.06765966
Cu      11.26364002      11.26364002      10.00000011  F       0.00372635       0.00177688      -0.06015067
Cu       0.00000000       0.00000000      11.76991004  F      -0.01045022       0.03883370       0.14490675
Cu       2.50302998       0.00000000      11.76991004  F       0.03760379       0.04064402       0.11367014
Cu       5.00605995       0.00000000      11.76991004  F       0.05321313       0.08923214       0.12560333
Cu       7.50909005       0.00000000      11.76991004  F       0.02521189       0.06404838       0.11873583
Cu      10.01212003       0.00000000      11.76991004  F      -0.01820612       0.09191968       0.14067941
Cu       0.00000000       2.50302998      11.76991004  F      -0.02332976       0.06324211       0.15115735
Cu       2.50302998       2.50302998      11.76991004  F       0.05007840       0.03894806       0.13357536
Cu       5.00605995       2.50302998      11.76991004  F       0.01167804      -0.03038344       0.09820898
Cu       7.50909005       2.50302998      11.76991004  F       0.00092842      -0.01921900       0.12824794
Cu      10.01212003       2.50302998      11.76991004  F       0.05704173      -0.07631738       0.06885589
Cu       0.00000000       5.00605995      11.76991004  F      -0.04597807       0.00099466       0.11230476
Cu       2.50302998       5.00605995      11.76991004  F       0.06907179       0.00080399       0.17804386
Cu       5.00605995       5.00605995      11.76991004  F      -0.00283687       0.00119751       0.21656971
Cu       7.50909005       5.00605995      11.76991004  F      -0.04380547       0.00124162       0.16017768
Cu      10.01212003       5.00605995      11.76991004  F       0.04746996       0.00030501       0.08262695
Cu       0.00000000       7.50909005      11.76991004  F      -0.02268010      -0.06629883       0.15130049
Cu       2.50302998       7.50909005      11.76991004  F       0.04999085      -0.04015207       0.13264708
Cu       5.00605995       7.50909005      11.76991004  F       0.01377919       0.02674473       0.09782491
Cu       7.50909005       7.50909005      11.76991004  F       0.00124400       0.01419537       0.12865474
Cu      10.01212003       7.50909005      11.76991004  F       0.05941025       0.07337503       0.06830358
Cu       0.00000000      10.01212003      11.76991004  F      -0.00938821      -0.03645670       0.14170111
Cu       2.50302998      10.01212003      11.76991004  F       0.03905466      -0.03829914       0.11227532
Cu       5.00605995      10.01212003      11.76991004  F       0.05278527      -0.08628727       0.12315861