109
Lattice="12.51515363 0.0 0.0 0.0 12.51515363 0.0 0.0 0.0 25.30973" Properties=species:S:1:pos:R:3:move_mask:L:1:forces:R:3 energy=-453.44686878 stress="0.007587309852224752 4.981216737524873e-05 0.0003014274916574791 4.981216737524873e-05 0.00849576158039517 -8.031355490367171e-06 0.0003014274916574791 -8.031355490367171e-06 0.0026471047604491424" free_energy=-453.44811462 pbc="T T T"
Cu       1.25151999       1.25151999      10.00000011  F       0.00374712      -0.00239634      -0.05885303
Cu       3.75454997       1.25151999      10.00000011  F       0.00537076       0.01455351      -0.06404214
Cu       6.25757994       1.25151999      10.00000011  F       0.00265951       0.02898336      -0.06113017
Cu       8.76061004       1.25151999      10.00000011  F       0.00023016       0.01205083      -0.05802335
Cu      11.26364002       1.25151999      10.00000011  F      -0.01356965       0.00458268      -0.07405565
Cu       1.25151999       3.75454997      10.00000011  F       0.00747328       0.00699734      -0.07681762
Cu       3.75454997       3.75454997      10.00000011  F       0.01011567      -0.01504587      -0.05970848
Cu       6.25757994       3.75454997      10.00000011  F      -0.00145179      -0.03758435      -0.07472531
Cu       8.76061004       3.75454997      10.00000011  F       0.00375516      -0.02330532      -0.07691854
Cu      11.26364002       3.75454997      10.00000011  F      -0.01780044      -0.01212503      -0.04402357
Cu       1.25151999       6.25757994      10.00000011  F       0.00735657      -0.00521610      -0.06514976
Cu       3.75454997       6.25757994      10.00000011  F       0.01120226       0.01443293      -0.04657602
Cu       6.25757994       6.25757994      10.00000011  F      -0.00780478       0.03030541      -0.08052647
Cu       8.76061004       6.25757994      10.00000011  F       0.00322802       0.02111151      -0.07685388
Cu      11.26364002       6.25757994      10.00000011  F      -0.00956968       0.00196234      -0.05410367
Cu       1.25151999       8.76061004      10.00000011  F       0.00490271       0.01159866      -0.05623933
Cu       3.75454997       8.76061004      10.00000011  F      -0.00456988      -0.01115358      -0.05798411
Cu       6.25757994       8.76061004      10.00000011  F       0.00253105      -0.03422153      -0.04828788
Cu       8.76061004       8.76061004      10.00000011  F       0.00174783      -0.01975283      -0.05439012
Cu      11.26364002       8.76061004      10.00000011  F      -0.00462497      -0.00223885      -0.06930678
Cu       1.25151999      11.26364002      10.00000011  F       0.01240802      -0.01082085      -0.01259568
Cu       3.75454997      11.26364002      10.00000011  F      -0.01437792      -0.00201456      -0.07274081
Cu       6.25757994      11.26364002      10.00000011  F       0.00645204       0.01472587      -0.06527350
Cu       8.76061004      11.26364002      10.00000011  F      -0.00423795       0.00836231      -0.06350713
Cu      11.26364002      11.26364002      10.00000011  F      -0.00528787       0.00736571      -0.05729882
Cu       0.00000000       0.00000000      11.76991004  F      -0.00283956       0.04558271       0.14708140
Cu       2.50302998       0.00000000      11.76991004  F       0.03266713       0.04275739       0.11397045
Cu       5.00605995       0.00000000      11.76991004  F       0.05070829       0.10348027       0.10694165
Cu       7.50909005       0.00000000      11.76991004  F       0.01258742       0.06295967       0.09692349
Cu      10.01212003       0.00000000      11.76991004  F      -0.00239892       0.07127252       0.09215414
Cu       0.00000000       2.50302998      11.76991004  F      -0.09305063      -0.02061213       0.07788271
Cu       2.50302998       2.50302998      11.76991004  F       0.09177246       0.00843332       0.11232884
Cu       5.00605995       2.50302998      11.76991004  F       0.00273986      -0.03365476       0.12759466
Cu       7.50909005       2.50302998      11.76991004  F      -0.02131832       0.00200037       0.13170929
Cu      10.01212003       2.50302998      11.76991004  F       0.07071320      -0.06040343       0.04898956
Cu       0.00000000       5.00605995      11.76991004  F      -0.07024715       0.04239179       0.08710958
Cu       2.50302998       5.00605995      11.76991004  F       0.07441775       0.02727459       0.10493165
Cu       5.00605995       5.00605995      11.76991004  F      -0.05691370       0.03776909       0.28841269
Cu       7.50909005       5.00605995      11.76991004  F      -0.03932056      -0.00208762       0.15778425
Cu      10.01212003       5.00605995      11.76991004  F       0.03743578      -0.00207719       0.04390643
Cu       0.00000000       7.50909005      11.76991004  F      -0.07079618      -0.00976359       0.08493006
Cu       2.50302998       7.50909005      11.76991004  F       0.09233168      -0.03157183       0.11501169
Cu       5.00605995       7.50909005      11.76991004  F      -0.03748932       0.01607708       0.14076100
Cu       7.50909005       7.50909005      11.76991004  F      -0.01070691      -0.00046344       0.11763448
Cu      10.01212003       7.50909005      11.76991004  F       0.06298767       0.06623991       0.03766901
Cu       0.00000000      10.01212003      11.76991004  F       0.02260544      -0.05037980       0.13988771
Cu       2.50302998      10.01212003      11.76991004  F       0.03743706      -0.04149639       0.08459547
Cu       5.00605995      10.01212003      11.76991004  F       0.01411049      -0.11926535       0.13430438
Cu       7.50909005      10.01212003      11.76991004  F       0.02357863      -0.06347984       0.10212216
Cu      10.01212003      10.01212003      11.76991004  F      -0.02038298      -0.06736716       0.09959604
Cu       1.27139706       1.24490336      13.58780569  T      -0.00506314      -0.02458245       0.00315672
Cu       3.78882234       1.26560780      13.60859460  T      -0.00471786      -0.00720572      -0.01008379
Cu       6.29087939       1.27971814      13.61464793  T       0.00754377      -0.00670351      -0.00253295
Cu       8.77842849       1.27624768      13.60999549  T       0.00748427      -0.01247995      -0.00983443
Cu      11.27065539       1.26452874      13.61444216  T       0.01349919      -0.01593075      -0.01834164
Cu       1.23720666       3.74731233      13.55684025  T      -0.01015066       0.00353258      -0.00913600
Cu       3.78070739       3.77158647      13.61566183  T      -0.01520461       0.01305622      -0.01106594
Cu       6.26254658       3.77943185      13.60410465  T      -0.00032419       0.01336115      -0.03196343
Cu       8.74824895       3.76913801      13.56293306  T      -0.00057820      -0.00154767      -0.05985885
Cu      11.22409138       3.75801304      13.60774723  T       0.00460862       0.00233771      -0.01011345
Cu       1.25049287       6.27583229      13.57540899  T      -0.00898431      -0.00332958      -0.00615220
Cu       3.76171014       6.25525000      13.63970987  T      -0.01610267      -0.00421405       0.00077500
Cu       6.25771648       6.22732018      13.59980301  T      -0.00857730      -0.01754937      -0.02909833
Cu       8.74768577       6.24379062      13.56063165  T      -0.00239397      -0.00124995      -0.05069808
Cu      11.22535228       6.25130910      13.60618233  T       0.00226452      -0.00347596      -0.00220352
Cu       1.28178551       8.76115007      13.59596226  T      -0.01566510       0.02259011      -0.00074739
Cu       3.77141889       8.73638546      13.62260606  T       0.01121607       0.00677791      -0.00678400
Cu       6.28738190       8.73233418      13.60801627  T       0.00826828       0.00619314      -0.00029940
Cu       8.77744956       8.73747891      13.61028757  T      -0.00539410       0.00970195       0.00244501
Cu      11.26855772       8.75081881      13.60759613  T       0.01223066       0.00446067      -0.00831564
Cu       1.24857192      11.26264682      13.60821521  T      -0.02162993       0.00438750      -0.01731473
Cu       3.74105075      11.26217700      13.57744313  T      -0.00792685      -0.00262224       0.00534594
Cu       6.25656334      11.26608235      13.57022378  T      -0.00292356      -0.00221640      -0.01450773
Cu       8.76586353      11.26454712      13.57801741  T      -0.00994999       0.00878941      -0.01046548
Cu      11.26800218      11.26698019      13.58572498  T       0.02142792       0.01259776       0.00011321
Cu      12.51159307       0.00378233      15.40145412  T      -0.00708488       0.01593614      -0.08283780
Cu       2.50379252       0.01754975      15.39918232  T       0.02148809       0.01583124      -0.08509111
Cu       5.00222230      12.47580912      15.36743303  T       0.00222268      -0.00492868      -0.04610475
Cu       7.51149046      12.49094845      15.36163458  T      -0.00588691       0.00351384      -0.06199033
Cu      10.01479326      12.49896027      15.37985100  T      -0.00831443       0.00182834      -0.06007357
Cu       0.07871594       2.50801576      15.37476881  T       0.03120199       0.00920105      -0.04284668
Cu       2.54194534       2.50860147      15.37197563  T       0.02748486       0.02302882      -0.04312638
Cu       5.01653025       2.42082832      15.45933165  T      -0.04785821      -0.04641665      -0.09039722
Cu       7.62647293       2.49580660      15.44947857  T       0.06449060      -0.06565989      -0.12153541
Cu      10.13395868       2.46013716      15.47429552  T       0.05254897      -0.04902544      -0.06176765
Cu      12.43775642       5.00332664      15.34648620  T      -0.01618404       0.00543825      -0.05887686
Cu       2.31684654       4.97793940      15.35861690  T      -0.02633634      -0.00720053      -0.02052399
Pd       4.75359226       4.99863534      15.80432959  T      -0.12475600      -0.01311744      -0.00500424
Y        7.51921794       5.01054200      17.27143492  T      -0.10233767       0.01101718       0.11289538
Cu       9.95210448       5.00555997      15.46511315  T       0.08201769      -0.01135038      -0.14366221
Cu       0.04625025       7.50374821      15.35698315  T       0.02046959      -0.01648648      -0.03378856
Cu       2.54053939       7.50392880      15.48865373  T       0.03030755      -0.02768504       0.01628701
Cu       5.04455018       7.57489686      15.44549887  T      -0.04268807       0.04633209      -0.09237114
Cu       7.62568598       7.51392390      15.44648114  T       0.08791259       0.06827268      -0.09171858
Cu      10.12244861       7.56003286      15.47734636  T       0.03163048       0.05759249      -0.07950210
Cu      12.50804703      10.00690821      15.38751453  T      -0.01017697      -0.00377141      -0.07602731
Cu       2.50392431      10.04481549      15.39502975  T       0.02819851      -0.00666016      -0.05986196
Cu       5.00598599      10.04000154      15.35718183  T      -0.00146212      -0.00716237      -0.05001729
Cu       7.50961619      10.03633772      15.35943364  T      -0.00125860      -0.02399521      -0.06669344
Cu      10.01383147      10.03248443      15.37600873  T      -0.01320096      -0.01126949      -0.05214826
O        6.28226033       3.38457011      16.52147320  T      -0.03613745      -0.03153859       0.03698512
O        6.29454358       6.63568263      16.54315352  T      -0.04968159       0.00019695       0.05515599
O        9.06068013       6.42310849      16.58518235  T       0.03471184       0.11886732       0.09432350
O        9.03755825       3.57163875      16.57582914  T       0.06318603      -0.11595184       0.09240306
C        4.41986968       4.94265968      17.75890260  T      -0.44267359      -0.02647978       0.08737211
O        5.35559205       4.98662104      18.55214219  T       0.01758091      -0.01716407       0.17615572
H        3.37374438       4.84519555      18.15223782  T       0.24346050       0.02095942      -0.04344937
C        2.52350089       7.64813140      17.33056478  T      -0.04656820       0.02246893      -0.71204491
O        2.55339759       7.69496323      18.48160903  T      -0.00977756       0.03592677       0.64246337
109
Lattice="12.51515363 0.0 0.0 0.0 12.51515363 0.0 0.0 0.0 25.30973" Properties=species:S:1:pos:R:3:move_mask:L:1:forces:R:3 energy=-453.45227088 stress="0.007602283195168692 4.8884959987053136e-05 0.00035661147003550136 4.8884959987053136e-05 0.008498766080609134 7.596172508074087e-06 0.00035661147003550136 7.596172508074087e-06 0.003017508242996327" free_energy=-453.45348152 pbc="T T T"
Cu       1.25151999       1.25151999      10.00000011  F       0.00354426      -0.00255863      -0.05878639
Cu       3.75454997       1.25151999      10.00000011  F       0.00511154       0.01443870      -0.06408608
Cu       6.25757994       1.25151999      10.00000011  F       0.00261841       0.02889289      -0.06128078
Cu       8.76061004       1.25151999      10.00000011  F       0.00024821       0.01185657      -0.05785506
Cu      11.26364002       1.25151999      10.00000011  F      -0.01368443       0.00429096      -0.07420545
Cu       1.25151999       3.75454997      10.00000011  F       0.00732564       0.00685052      -0.07709094
Cu       3.75454997       3.75454997      10.00000011  F       0.00993563      -0.01509316      -0.05990180
Cu       6.25757994       3.75454997      10.00000011  F      -0.00156843      -0.03767671      -0.07501421
Cu       8.76061004       3.75454997      10.00000011  F       0.00356020      -0.02351022      -0.07718047
Cu      11.26364002       3.75454997      10.00000011  F      -0.01776749      -0.01237355      -0.04425181
Cu       1.25151999       6.25757994      10.00000011  F       0.00726437      -0.00495300      -0.06533927
Cu       3.75454997       6.25757994      10.00000011  F       0.01106103       0.01459318      -0.04667722
Cu       6.25757994       6.25757994      10.00000011  F      -0.00812401       0.03039458      -0.08074464
Cu       8.76061004       6.25757994      10.00000011  F       0.00315165       0.02124227      -0.07711692
Cu      11.26364002       6.25757994      10.00000011  F      -0.00952758       0.00221753      -0.05435643
Cu       1.25151999       8.76061004      10.00000011  F       0.00468236       0.01176269      -0.05618569
Cu       3.75454997       8.76061004      10.00000011  F      -0.00479019      -0.01114951      -0.05807554
Cu       6.25757994       8.76061004      10.00000011  F       0.00227794      -0.03416032      -0.04842083
Cu       8.76061004       8.76061004      10.00000011  F       0.00186822      -0.01952360      -0.05438177
Cu      11.26364002       8.76061004      10.00000011  F      -0.00464688      -0.00191332      -0.06940036
Cu       1.25151999      11.26364002      10.00000011  F       0.01216705      -0.01099065      -0.01256686
Cu       3.75454997      11.26364002      10.00000011  F      -0.01468278      -0.00208858      -0.07272954
Cu       6.25757994      11.26364002      10.00000011  F       0.00630576       0.01472336      -0.06531723
Cu       8.76061004      11.26364002      10.00000011  F      -0.00408512       0.00835052      -0.06352695
Cu      11.26364002      11.26364002      10.00000011  F      -0.00540060       0.00726719      -0.05781231
Cu       0.00000000       0.00000000      11.76991004  F      -0.00287856       0.04538577       0.14496096
Cu       2.50302998       0.00000000      11.76991004  F       0.03242573       0.04262544       0.11263778
Cu       5.00605995       0.00000000      11.76991004  F       0.05031704       0.10335194       0.10589925
Cu       7.50909005       0.00000000      11.76991004  F       0.01238059       0.06257632       0.09555900
Cu      10.01212003       0.00000000      11.76991004  F      -0.00211202       0.07082161       0.09079132
Cu       0.00000000       2.50302998      11.76991004  F      -0.09282224      -0.02109407       0.07670667
Cu       2.50302998       2.50302998      11.76991004  F       0.09120081       0.00805133       0.11172563
Cu       5.00605995       2.50302998      11.76991004  F       0.00238873      -0.03399088       0.12693566
Cu       7.50909005       2.50302998      11.76991004  F      -0.02187993       0.00136415       0.13018783
Cu      10.01212003       2.50302998      11.76991004  F       0.07127970      -0.06113616       0.04756711
Cu       0.00000000       5.00605995      11.76991004  F      -0.07018069       0.04252910       0.08574407
Cu       2.50302998       5.00605995      11.76991004  F       0.07419247       0.02728584       0.10410708
Cu       5.00605995       5.00605995      11.76991004  F      -0.05787406       0.03785983       0.28728377
Cu       7.50909005       5.00605995      11.76991004  F      -0.04009503      -0.00190679       0.15526528
Cu      10.01212003       5.00605995      11.76991004  F       0.03817541      -0.00190842       0.04183304
Cu       0.00000000       7.50909005      11.76991004  F      -0.07075339      -0.00949679       0.08376663
Cu       2.50302998       7.50909005      11.76991004  F       0.09185224      -0.03123421       0.11534377
Cu       5.00605995       7.50909005      11.76991004  F      -0.03767072       0.01629296       0.13993079
Cu       7.50909005       7.50909005      11.76991004  F      -0.01121017       0.00005845       0.11629829
Cu      10.01212003       7.50909005      11.76991004  F       0.06321713       0.06710133       0.03628149
Cu       0.00000000      10.01212003      11.76991004  F       0.02230794      -0.05016494       0.13790563
Cu       2.50302998      10.01212003      11.76991004  F       0.03715223      -0.04132260       0.08348128
Cu       5.00605995      10.01212003      11.76991004  F       0.01378851      -0.11913441       0.13330263
Cu       7.50909005      10.01212003      11.76991004  F       0.02371550      -0.06321634       0.10072274
Cu      10.01212003      10.01212003      11.76991004  F      -0.02024723      -0.06719802       0.09882424
Cu       1.27134825       1.24466607      13.58783606  T      -0.00407028      -0.02132726       0.00029070
Cu       3.78877679       1.26553822      13.60849741  T      -0.00478215      -0.00658164      -0.01324132
Cu       6.29095210       1.27965343      13.61462338  T       0.00651352      -0.00599593      -0.00545626
Cu       8.77850071       1.27612729      13.60990058  T       0.00851504      -0.01233720      -0.01382295
Cu      11.27078567       1.26437506      13.61426524  T       0.01289496      -0.01437930      -0.02072982
Cu       1.23710867       3.74734637      13.55675217  T      -0.00912957       0.00279504      -0.01048543
Cu       3.78056071       3.77171250      13.61555503  T      -0.01426979       0.01213584      -0.01292220
Cu       6.26254345       3.77956075      13.60379638  T      -0.00121369       0.01181376      -0.02869332
Cu       8.74824332       3.76912311      13.56235575  T      -0.00043919      -0.00172487      -0.05593087
Cu      11.22413581       3.75803569      13.60764979  T       0.00477362       0.00056921      -0.01285877
Cu       1.25040614       6.27580013      13.57534951  T      -0.00796394      -0.00247286      -0.00858524
Cu       3.76155470       6.25520932      13.63971721  T      -0.01546719      -0.00345937      -0.00252597
Cu       6.25763376       6.22715085      13.59952233  T      -0.00883408      -0.01539769      -0.02537043
Cu       8.74766262       6.24377861      13.56014241  T      -0.00250206      -0.00112303      -0.04748036
Cu      11.22537419       6.25127556      13.60616107  T       0.00223493      -0.00155840      -0.00540975
Cu       1.28163433       8.76136809      13.59595492  T      -0.01352755       0.02019051      -0.00414885
Cu       3.77152715       8.73645092      13.62254077  T       0.00891682       0.00586134      -0.01116452
Cu       6.28746175       8.73239400      13.60801349  T       0.00747888       0.00479483      -0.00333827
Cu       8.77739750       8.73757252      13.61031136  T      -0.00333379       0.01011040      -0.00306981
Cu      11.26867562       8.75086187      13.60751590  T       0.01167878       0.00425161      -0.01120111
Cu       1.24836330      11.26268912      13.60804816  T      -0.01881358       0.00349668      -0.01801981
Cu       3.74097428      11.26215172      13.57749476  T      -0.00800759      -0.00255908       0.00238421
Cu       6.25653505      11.26606095      13.57008382  T      -0.00345778      -0.00240112      -0.01543693
Cu       8.76576741      11.26463197      13.57791642  T      -0.00872667       0.00793056      -0.01234615
Cu      11.26820893      11.26710184      13.58572599  T       0.01838517       0.01106182      -0.00258837
Cu      12.51152474       0.00393614      15.40065484  T      -0.00650590       0.01530977      -0.07842448
Cu       2.50399977       0.01770243      15.39836127  T       0.01984533       0.01504913      -0.08155649
Cu       5.00224370      12.47576156      15.36698809  T       0.00236456      -0.00584472      -0.04442141
Cu       7.51143376      12.49098236      15.36103651  T      -0.00595424       0.00127116      -0.05906462
Cu      10.01471304      12.49897792      15.37927141  T      -0.00812739       0.00007500      -0.05755641
Cu       0.07901705       2.50810462      15.37435550  T       0.03083496       0.00893781      -0.04137161
Cu       2.54221054       2.50882362      15.37155953  T       0.02495878       0.02223253      -0.04169764
Cu       5.01606844       2.42038040      15.45845948  T      -0.03664258      -0.03644781      -0.08011239
Cu       7.62709518       2.49517296      15.44830597  T       0.05370735      -0.05006342      -0.10283573
Cu      10.13446579       2.45966422      15.47369948  T       0.04603561      -0.04126263      -0.05290416
Cu      12.43760023       5.00337908      15.34591799  T      -0.01392906       0.00399510      -0.05612976
Cu       2.31659236       4.97786994      15.35841897  T      -0.02852425      -0.00546410      -0.01753335
Pd       4.75238855       4.99850881      15.80428125  T      -0.10772990      -0.01298343       0.01928457
Y        7.51823062       5.01064826      17.27252425  T      -0.09495614       0.01052360       0.10631835
Cu       9.95289582       5.00545046      15.46372694  T       0.06262216      -0.00919262      -0.12171669
Cu       0.04644774       7.50358914      15.35665716  T       0.02253903      -0.01569625      -0.02846631
Cu       2.54083187       7.50366160      15.48881065  T       0.02938032      -0.03166620      -0.03260248
Cu       5.04413831       7.57534390      15.44460772  T      -0.03279665       0.03526275      -0.07745096
Cu       7.62653425       7.51458258      15.44559606  T       0.07224132       0.05192531      -0.07288829
Cu      10.12275386       7.56058853      15.47657922  T       0.02598787       0.04718116      -0.06921493
Cu      12.50794891      10.00687192      15.38678080  T      -0.01037190      -0.00234366      -0.07240510
Cu       2.50419639      10.04475116      15.39445218  T       0.02572820      -0.00911823      -0.05227476
Cu       5.00597197      10.03993245      15.35669918  T       0.00002126      -0.00486810      -0.04781285
Cu       7.50960405      10.03610619      15.35879002  T      -0.00172754      -0.02040285      -0.06349192
Cu      10.01370407      10.03237568      15.37550557  T      -0.01276073      -0.00840881      -0.05036350
O        6.28191166       3.38426575      16.52183007  T      -0.03466564      -0.03763725       0.02035794
O        6.29406424       6.63568451      16.54368578  T      -0.04565854       0.00682488       0.03490718
O        9.06101503       6.42425538      16.58609248  T       0.03657112       0.11089951       0.07964629
O        9.03816787       3.57052002      16.57672054  T       0.06191839      -0.10801162       0.08020867
C        4.41559851       4.94240412      17.75974567  T      -0.07285113      -0.00137702       0.16667266
O        5.35576163       4.98645534      18.55384199  T      -0.18402563      -0.02791514       0.01020743
H        3.37609348       4.84539767      18.15181869  T       0.08956212       0.00897788       0.02158948
C        2.52305147       7.64834817      17.32369445  T      -0.01410922       0.07940684       0.62567928
O        2.55330322       7.69530990      18.48780789  T      -0.04334948      -0.01725253      -0.65118183
109
Lattice="12.51515363 0.0 0.0 0.0 12.51515363 0.0 0.0 0.0 25.30973" Properties=species:S:1:pos:R:3:move_mask:L:1:forces:R:3 energy=-453.45503769000004 stress="0.007586279678660508 4.883747458562342e-05 0.000341748982535147 4.883747458562342e-05 0.008509199842894126 8.082379827471267e-07 0.000341748982535147 8.082379827471267e-07 0.0028487905332939935" free_energy=-453.45627172 pbc="T T T"
Cu       1.25151999       1.25151999      10.00000011  F       0.00339182      -0.00205505      -0.05950988
Cu       3.75454997       1.25151999      10.00000011  F       0.00543609       0.01503245      -0.06457120
Cu       6.25757994       1.25151999      10.00000011  F       0.00270175       0.02939698      -0.06125026
Cu       8.76061004       1.25151999      10.00000011  F      -0.00001100       0.01221579      -0.05791054
Cu      11.26364002       1.25151999      10.00000011  F      -0.01412229       0.00463712      -0.07461631
Cu       1.25151999       3.75454997      10.00000011  F       0.00733890       0.00734935      -0.07680266
Cu       3.75454997       3.75454997      10.00000011  F       0.01023682      -0.01452745      -0.05944923
Cu       6.25757994       3.75454997      10.00000011  F      -0.00160536      -0.03714404      -0.07439988
Cu       8.76061004       3.75454997      10.00000011  F       0.00320537      -0.02309738      -0.07654703
Cu      11.26364002       3.75454997      10.00000011  F      -0.01817053      -0.01198400      -0.04395782
Cu       1.25151999       6.25757994      10.00000011  F       0.00728950      -0.00524921      -0.06488152
Cu       3.75454997       6.25757994      10.00000011  F       0.01136979       0.01429721      -0.04597222
Cu       6.25757994       6.25757994      10.00000011  F      -0.00809583       0.03016322      -0.07992634
Cu       8.76061004       6.25757994      10.00000011  F       0.00267106       0.02103969      -0.07634856
Cu      11.26364002       6.25757994      10.00000011  F      -0.00989147       0.00197035      -0.05389176
Cu       1.25151999       8.76061004      10.00000011  F       0.00465476       0.01107683      -0.05660476
Cu       3.75454997       8.76061004      10.00000011  F      -0.00449378      -0.01189083      -0.05803926
Cu       6.25757994       8.76061004      10.00000011  F       0.00240164      -0.03485119      -0.04806470
Cu       8.76061004       8.76061004      10.00000011  F       0.00144923      -0.02005487      -0.05410135
Cu      11.26364002       8.76061004      10.00000011  F      -0.00508827      -0.00242591      -0.06953864
Cu       1.25151999      11.26364002      10.00000011  F       0.01196846      -0.01111903      -0.01343260
Cu       3.75454997      11.26364002      10.00000011  F      -0.01436584      -0.00234481      -0.07356064
Cu       6.25757994      11.26364002      10.00000011  F       0.00649530       0.01448348      -0.06564509
Cu       8.76061004      11.26364002      10.00000011  F      -0.00428794       0.00816145      -0.06372270
Cu      11.26364002      11.26364002      10.00000011  F      -0.00589946       0.00716438      -0.05852784
Cu       0.00000000       0.00000000      11.76991004  F      -0.00324463       0.04583196       0.14450783
Cu       2.50302998       0.00000000      11.76991004  F       0.03270584       0.04295815       0.11276953
Cu       5.00605995       0.00000000      11.76991004  F       0.05068245       0.10374092       0.10597596
Cu       7.50909005       0.00000000      11.76991004  F       0.01229057       0.06306624       0.09516331
Cu      10.01212003       0.00000000      11.76991004  F      -0.00274788       0.07101358       0.09042002
Cu       0.00000000       2.50302998      11.76991004  F      -0.09298416      -0.01998713       0.07682866
Cu       2.50302998       2.50302998      11.76991004  F       0.09133959       0.00924814       0.11217470
Cu       5.00605995       2.50302998      11.76991004  F       0.00257667      -0.03276342       0.12718980
Cu       7.50909005       2.50302998      11.76991004  F      -0.02217033       0.00202158       0.12973693
Cu      10.01212003       2.50302998      11.76991004  F       0.07093291      -0.06044395       0.04722331
Cu       0.00000000       5.00605995      11.76991004  F      -0.07036744       0.04274294       0.08566073
Cu       2.50302998       5.00605995      11.76991004  F       0.07447788       0.02765579       0.10424036
Cu       5.00605995       5.00605995      11.76991004  F      -0.05788273       0.03820302       0.28692067
Cu       7.50909005       5.00605995      11.76991004  F      -0.04070770      -0.00164532       0.15438108
Cu      10.01212003       5.00605995      11.76991004  F       0.03796622      -0.00171673       0.04128704
Cu       0.00000000       7.50909005      11.76991004  F      -0.07086450      -0.01054443       0.08377370
Cu       2.50302998       7.50909005      11.76991004  F       0.09213749      -0.03219240       0.11526341
Cu       5.00605995       7.50909005      11.76991004  F      -0.03755127       0.01518135       0.14010937
Cu       7.50909005       7.50909005      11.76991004  F      -0.01165141      -0.00062508       0.11593343
Cu      10.01212003       7.50909005      11.76991004  F       0.06282324       0.06641939       0.03620690
Cu       0.00000000      10.01212003      11.76991004  F       0.02177075      -0.05096091       0.13753974
Cu       2.50302998      10.01212003      11.76991004  F       0.03752959      -0.04235521       0.08357278
Cu       5.00605995      10.01212003      11.76991004  F       0.01415364      -0.12011132       0.13313757