109
Lattice="12.51515363 0.0 0.0 0.0 12.51515363 0.0 0.0 0.0 25.30973" Properties=species:S:1:pos:R:3:move_mask:L:1:forces:R:3 energy=-452.67942938 stress="0.00793318060879796 0.00013369062263125992 0.0003279334520170774 0.00013369062263125992 0.008707497968004303 -0.00028944237731321165 0.0003279334520170774 -0.00028944237731321165 0.0031687292425132364" free_energy=-452.68102494 pbc="T T T"
Cu       1.25151999       1.25151999      10.00000011  F       0.00125348      -0.01022592      -0.06420604
Cu       3.75454997       1.25151999      10.00000011  F       0.00775094       0.00594564      -0.06175604
Cu       6.25757994       1.25151999      10.00000011  F      -0.00189629       0.01722993      -0.05559439
Cu       8.76061004       1.25151999      10.00000011  F       0.01089344       0.01641855      -0.05893124
Cu      11.26364002       1.25151999      10.00000011  F      -0.02115822       0.00299361      -0.07319092
Cu       1.25151999       3.75454997      10.00000011  F       0.00106820       0.01677243      -0.06774428
Cu       3.75454997       3.75454997      10.00000011  F       0.01761086      -0.00479291      -0.05100016
Cu       6.25757994       3.75454997      10.00000011  F      -0.01418715      -0.02192194      -0.07873512
Cu       8.76061004       3.75454997      10.00000011  F       0.01944039      -0.02585208      -0.06866132
Cu      11.26364002       3.75454997      10.00000011  F      -0.02001099      -0.00344973      -0.06440148
Cu       1.25151999       6.25757994      10.00000011  F      -0.00844705      -0.01083440      -0.06373797
Cu       3.75454997       6.25757994      10.00000011  F       0.02162840       0.00625029      -0.04012456
Cu       6.25757994       6.25757994      10.00000011  F      -0.02206234       0.01837090      -0.07923456
Cu       8.76061004       6.25757994      10.00000011  F       0.01409680       0.01558930      -0.07043012
Cu      11.26364002       6.25757994      10.00000011  F      -0.00141298      -0.00252887      -0.05151090
Cu       1.25151999       8.76061004      10.00000011  F      -0.00747953       0.01259872      -0.06156563
Cu       3.75454997       8.76061004      10.00000011  F       0.01307399       0.00246643      -0.05855814
Cu       6.25757994       8.76061004      10.00000011  F      -0.01418945      -0.02057352      -0.05208949
Cu       8.76061004       8.76061004      10.00000011  F       0.00721085      -0.01617095      -0.04534484
Cu      11.26364002       8.76061004      10.00000011  F       0.00010681      -0.00351089      -0.07156404
Cu       1.25151999      11.26364002      10.00000011  F       0.00134550      -0.00764167      -0.00699909
Cu       3.75454997      11.26364002      10.00000011  F      -0.00956578      -0.00993078      -0.07609279
Cu       6.25757994      11.26364002      10.00000011  F      -0.00417911       0.00543421      -0.07519432
Cu       8.76061004      11.26364002      10.00000011  F      -0.00037127       0.00777104      -0.05916588
Cu      11.26364002      11.26364002      10.00000011  F       0.01153068       0.00643118      -0.07378156
Cu       0.00000000       0.00000000      11.76991004  F       0.00788083       0.04024253       0.14100665
Cu       2.50302998       0.00000000      11.76991004  F       0.05538796       0.02324110       0.13137000
Cu       5.00605995       0.00000000      11.76991004  F       0.04098904       0.08881455       0.12721763
Cu       7.50909005       0.00000000      11.76991004  F       0.02988712       0.02929291       0.09741110
Cu      10.01212003       0.00000000      11.76991004  F       0.00159355       0.08157631       0.11390907
Cu       0.00000000       2.50302998      11.76991004  F      -0.03511561       0.00601479       0.10421876
Cu       2.50302998       2.50302998      11.76991004  F       0.10216489       0.01043427       0.10848709
Cu       5.00605995       2.50302998      11.76991004  F       0.03980005      -0.02856640       0.12898034
Cu       7.50909005       2.50302998      11.76991004  F      -0.02412721       0.02567238       0.15856005
Cu      10.01212003       2.50302998      11.76991004  F       0.03127055      -0.10281485       0.02529012
Cu       0.00000000       5.00605995      11.76991004  F      -0.09058522      -0.00699482       0.04450881
Cu       2.50302998       5.00605995      11.76991004  F       0.09726099       0.00861568       0.09360425
Cu       5.00605995       5.00605995      11.76991004  F      -0.02575774       0.01255106       0.24396345
Cu       7.50909005       5.00605995      11.76991004  F      -0.09930086      -0.01865887       0.19311861
Cu      10.01212003       5.00605995      11.76991004  F       0.03300372       0.03114846       0.07377981
Cu       0.00000000       7.50909005      11.76991004  F      -0.07123905      -0.01682664       0.10392995
Cu       2.50302998       7.50909005      11.76991004  F       0.09110121      -0.03931779       0.15389503
Cu       5.00605995       7.50909005      11.76991004  F       0.00241322      -0.00992787       0.15579190
Cu       7.50909005       7.50909005      11.76991004  F      -0.05910533      -0.02573985       0.15854312
Cu      10.01212003       7.50909005      11.76991004  F       0.04930453       0.06905240       0.05666758
Cu       0.00000000      10.01212003      11.76991004  F      -0.01942388      -0.02247625       0.12046644
Cu       2.50302998      10.01212003      11.76991004  F       0.06075367      -0.03963971       0.11886725
Cu       5.00605995      10.01212003      11.76991004  F       0.00658286      -0.14346741       0.15225250
Cu       7.50909005      10.01212003      11.76991004  F       0.02307312      -0.07608991       0.11155815
Cu      10.01212003      10.01212003      11.76991004  F      -0.01256665      -0.07972804       0.13743622
Cu       1.28301863       1.24486268      13.58878088  T       0.00353972      -0.02186759      -0.00081724
Cu       3.80532983       1.26137768      13.61486559  T      -0.00349349      -0.00567814      -0.01757269
Cu       6.30547156       1.27043990      13.61333536  T      -0.00030444       0.00265732       0.00882300
Cu       8.78949890       1.27280764      13.61307214  T      -0.00288628       0.00361595      -0.00333874
Cu      11.28354387       1.26468243      13.61300963  T       0.00766292      -0.00992505      -0.00854232
Cu       1.25413316       3.75124810      13.56910130  T      -0.01007987      -0.00181176       0.00195631
Cu       3.77882198       3.76324913      13.60994968  T      -0.01012679      -0.00394734      -0.00942382
Cu       6.25938901       3.77507858      13.62430308  T      -0.00559221      -0.00220396      -0.02874173
Cu       8.74179489       3.76410992      13.56807144  T       0.00136095      -0.00346104      -0.05521124
Cu      11.22362332       3.75303689      13.59044702  T       0.00494594      -0.00285862      -0.01274700
Cu       1.24379977       6.25800133      13.56780620  T      -0.00521264      -0.00406487      -0.01240148
Cu       3.75492480       6.25009651      13.63582483  T      -0.01346724       0.00287598      -0.01382716
Cu       6.24554875       6.21105198      13.61913382  T      -0.01083958      -0.00202222      -0.01916371
Cu       8.73769955       6.24301518      13.56161037  T       0.00399995      -0.00447863      -0.04971768
Cu      11.22702881       6.26143449      13.60592619  T       0.00878568       0.01001380       0.00227610
Cu       1.27533082       8.76274413      13.58572194  T      -0.00203807       0.01884930       0.00415725
Cu       3.77200210       8.72090322      13.63536698  T       0.00129730       0.00542827      -0.01514410
Cu       6.28760192       8.71654519      13.61610273  T       0.00470604       0.00610601      -0.00249258
Cu       8.77496830       8.73174021      13.61805942  T      -0.00563438       0.00962784       0.00020220
Cu      11.27424336       8.75477035      13.61247711  T       0.01492651       0.00487120      -0.00120574
Cu       1.24509121      11.26200416      13.60821850  T      -0.01121791       0.00226257      -0.01407188
Cu       3.74027005      11.25226274      13.58259391  T      -0.02050360      -0.00675793       0.00216159
Cu       6.25421111      11.25454363      13.57157886  T       0.00162927      -0.00126461      -0.00881730
Cu       8.76236242      11.26019022      13.58067493  T      -0.01050388       0.00016529      -0.00237780
Cu      11.26601802      11.26826124      13.58815345  T       0.01890696       0.00244717       0.00094220
Cu      12.51271130       0.00956095      15.40061004  T      -0.01412000       0.01498181      -0.08009271
Cu       2.50521049       0.00590953      15.39827066  T       0.00944780       0.01095818      -0.09233404
Cu       5.00494472      12.46249825      15.36952083  T       0.01007165      -0.00052260      -0.05232671
Cu       7.51127132      12.47568209      15.36608276  T      -0.00536644       0.00558628      -0.07505187
Cu      10.01373348      12.50508018      15.38203245  T      -0.00198588       0.00248126      -0.06174439
Cu       0.11355299       2.50679879      15.37891176  T       0.01830718       0.00867106      -0.04325083
Cu       2.58029290       2.49732069      15.37375009  T      -0.00581836       0.01147746      -0.05263201
Cu       5.07341801       2.39996718      15.47713882  T      -0.05109728      -0.03712255      -0.09043334
Cu       7.64995336       2.46688947      15.47125405  T       0.08707604      -0.05304170      -0.11453730
Cu      10.16569285       2.46364516      15.47065371  T       0.04820601      -0.06863818      -0.08368770
Cu      12.42100513       4.98442000      15.32202130  T       0.01186277      -0.00917579      -0.06657530
Cu       2.30554548       4.97542949      15.40956260  T      -0.03662400      -0.02479236      -0.03371803
Pd       4.74149861       4.97159785      15.77761948  T      -0.00264457      -0.00834781       0.00072788
Y        7.55760116       4.97740550      17.23812377  T      -0.04605906       0.00912161       0.06305201
Cu       9.96956550       5.01482832      15.45029734  T       0.09482156       0.00633091      -0.17885836
Cu       0.07013455       7.52049286      15.37595507  T       0.03082915       0.00829367      -0.04398504
Cu       2.51225277       7.48661471      15.47303307  T       0.00665860       0.01185652      -0.05301474
Cu       5.04612759       7.56122856      15.46468036  T      -0.03402469       0.05961236      -0.09729124
Cu       7.61136539       7.49502852      15.47276530  T       0.06362169       0.09685122      -0.12646445
Cu      10.13750459       7.56360356      15.47688344  T       0.05858751       0.06383520      -0.08306616
Cu      12.50224588      10.01971660      15.39925597  T      -0.00201489      -0.01216233      -0.08769309
Cu       2.49890936      10.02121979      15.39179947  T       0.00227989      -0.00390886      -0.08485169
Cu       5.00125839      10.02350531      15.36671905  T       0.00676903      -0.00167825      -0.05419223
Cu       7.50357262      10.01733672      15.36416631  T      -0.00011737      -0.00389097      -0.06976042
Cu      10.00704976      10.03808321      15.38157535  T      -0.00813270      -0.01046159      -0.05732756
O        6.32486704       3.31613863      16.61655578  T      -0.13762529       0.06194515       0.15812816
O        6.26343654       6.58582827      16.58785176  T      -0.13858491      -0.08494589       0.16149508
O        9.04451493       6.42964040      16.56169821  T       0.05068132       0.10433825       0.11116297
O        9.10176950       3.59446639      16.57767928  T       0.03406422      -0.12976170       0.09611071
C        1.84733930       7.13690440      17.30222092  T      -0.39560892      -0.17143709      -0.04418816
O        2.56662635       7.52165577      18.20150423  T       0.08081944       0.13366568       0.14443019
H        0.91207461       6.53379351      17.56052544  T       0.23733136       0.16851557      -0.05770745
C        4.19527185       4.81523740      17.69146406  T      -0.24550936       0.04234744      -0.56940752
O        4.63470831       4.78709833      18.76644777  T       0.07674169      -0.01280750       0.44896189
109
Lattice="12.51515363 0.0 0.0 0.0 12.51515363 0.0 0.0 0.0 25.30973" Properties=species:S:1:pos:R:3:move_mask:L:1:forces:R:3 energy=-452.68431695000004 stress="0.007877190714278585 0.0001374229264998647 0.0004691671131892228 0.0001374229264998647 0.008581081780568697 -0.00026505417348304377 0.0004691671131892228 -0.00026505417348304377 0.00333333346066012" free_energy=-452.68589702 pbc="T T T"
Cu       1.25151999       1.25151999      10.00000011  F       0.00123219      -0.01054451      -0.06456971
Cu       3.75454997       1.25151999      10.00000011  F       0.00755424       0.00562790      -0.06195559
Cu       6.25757994       1.25151999      10.00000011  F      -0.00178389       0.01712113      -0.05595664
Cu       8.76061004       1.25151999      10.00000011  F       0.01093394       0.01615100      -0.05930017
Cu      11.26364002       1.25151999      10.00000011  F      -0.02091514       0.00247897      -0.07359791
Cu       1.25151999       3.75454997      10.00000011  F       0.00104033       0.01656928      -0.06821626
Cu       3.75454997       3.75454997      10.00000011  F       0.01752320      -0.00470714      -0.05140217
Cu       6.25757994       3.75454997      10.00000011  F      -0.01418127      -0.02197018      -0.07911309
Cu       8.76061004       3.75454997      10.00000011  F       0.01946719      -0.02587621      -0.06910817
Cu      11.26364002       3.75454997      10.00000011  F      -0.01975977      -0.00329398      -0.06485495
Cu       1.25151999       6.25757994      10.00000011  F      -0.00833417      -0.01040871      -0.06431472
Cu       3.75454997       6.25757994      10.00000011  F       0.02150733       0.00646520      -0.04049009
Cu       6.25757994       6.25757994      10.00000011  F      -0.02226700       0.01844381      -0.07951348
Cu       8.76061004       6.25757994      10.00000011  F       0.01445327       0.01574015      -0.07077854
Cu      11.26364002       6.25757994      10.00000011  F      -0.00137927      -0.00231018      -0.05189526
Cu       1.25151999       8.76061004      10.00000011  F      -0.00733265       0.01296332      -0.06194935
Cu       3.75454997       8.76061004      10.00000011  F       0.01253715       0.00253405      -0.05859964
Cu       6.25757994       8.76061004      10.00000011  F      -0.01416475      -0.02042213      -0.05226064
Cu       8.76061004       8.76061004      10.00000011  F       0.00752337      -0.01598092      -0.04576869
Cu      11.26364002       8.76061004      10.00000011  F       0.00032310      -0.00327746      -0.07187645
Cu       1.25151999      11.26364002      10.00000011  F       0.00136515      -0.00785894      -0.00801139
Cu       3.75454997      11.26364002      10.00000011  F      -0.01002848      -0.00995115      -0.07642644
Cu       6.25757994      11.26364002      10.00000011  F      -0.00419286       0.00537349      -0.07537956
Cu       8.76061004      11.26364002      10.00000011  F      -0.00003108       0.00773160      -0.05958732
Cu      11.26364002      11.26364002      10.00000011  F       0.01181493       0.00635653      -0.07454903
Cu       0.00000000       0.00000000      11.76991004  F       0.00802264       0.03987235       0.13905354
Cu       2.50302998       0.00000000      11.76991004  F       0.05524451       0.02277422       0.12962219
Cu       5.00605995       0.00000000      11.76991004  F       0.04083281       0.08860349       0.12605564
Cu       7.50909005       0.00000000      11.76991004  F       0.02985257       0.02896290       0.09642981
Cu      10.01212003       0.00000000      11.76991004  F       0.00188735       0.08148004       0.11288297
Cu       0.00000000       2.50302998      11.76991004  F      -0.03482430       0.00582700       0.10304170
Cu       2.50302998       2.50302998      11.76991004  F       0.10161961       0.01010933       0.10747336
Cu       5.00605995       2.50302998      11.76991004  F       0.03960395      -0.02902096       0.12775212
Cu       7.50909005       2.50302998      11.76991004  F      -0.02420742       0.02493870       0.15679640
Cu      10.01212003       2.50302998      11.76991004  F       0.03180656      -0.10362264       0.02379086
Cu       0.00000000       5.00605995      11.76991004  F      -0.09068663      -0.00691240       0.04340004
Cu       2.50302998       5.00605995      11.76991004  F       0.09704645       0.00865271       0.09304284
Cu       5.00605995       5.00605995      11.76991004  F      -0.02632501       0.01276223       0.24339465
Cu       7.50909005       5.00605995      11.76991004  F      -0.09971253      -0.01842340       0.19089239
Cu      10.01212003       5.00605995      11.76991004  F       0.03404514       0.03138478       0.07182050
Cu       0.00000000       7.50909005      11.76991004  F      -0.07079107      -0.01640133       0.10342333
Cu       2.50302998       7.50909005      11.76991004  F       0.09052871      -0.03866736       0.15278242
Cu       5.00605995       7.50909005      11.76991004  F       0.00208769      -0.00949486       0.15444616
Cu       7.50909005       7.50909005      11.76991004  F      -0.05916876      -0.02521823       0.15710641
Cu      10.01212003       7.50909005      11.76991004  F       0.04990068       0.06990997       0.05535289
Cu       0.00000000      10.01212003      11.76991004  F      -0.01937865      -0.02240695       0.11865961
Cu       2.50302998      10.01212003      11.76991004  F       0.06063523      -0.03972905       0.11671420
Cu       5.00605995      10.01212003      11.76991004  F       0.00605384      -0.14354482       0.15138345
Cu       7.50909005      10.01212003      11.76991004  F       0.02313913      -0.07576343       0.10990266
Cu      10.01212003      10.01212003      11.76991004  F      -0.01187588      -0.07984911       0.13671018
Cu       1.28305280       1.24465168      13.58877303  T       0.00345226      -0.01939659      -0.00379491
Cu       3.80529616       1.26132286      13.61469601  T      -0.00349365      -0.00585358      -0.01984249
Cu       6.30546855       1.27046556      13.61342040  T      -0.00028767       0.00290982       0.00537366
Cu       8.78947111       1.27284244      13.61304000  T      -0.00135615       0.00214261      -0.00818732
Cu      11.28361771       1.26458669      13.61292737  T       0.00782354      -0.00955702      -0.01255545
Cu       1.25403591       3.75123057      13.56912002  T      -0.00897461      -0.00271022      -0.00193375
Cu       3.77872424       3.76321096      13.60985882  T      -0.00947045      -0.00306164      -0.01129667
Cu       6.25933507       3.77505730      13.62402569  T      -0.00474854      -0.00226751      -0.02651473
Cu       8.74180803       3.76407663      13.56753867  T       0.00132334      -0.00296964      -0.05183701
Cu      11.22367100       3.75300923      13.59032401  T       0.00509709      -0.00339408      -0.01556383
Cu       1.24374946       6.25796216      13.56768648  T      -0.00413050      -0.00330743      -0.01412378
Cu       3.75479477       6.25012429      13.63569145  T      -0.01272066       0.00285473      -0.01535864
Cu       6.24544412       6.21103246      13.61894881  T      -0.00965283      -0.00148534      -0.01744138
Cu       8.73773810       6.24297201      13.56113050  T       0.00362436      -0.00384832      -0.04645883
Cu      11.22711354       6.26153110      13.60594796  T       0.00884124       0.01082017      -0.00213218
Cu       1.27531118       8.76292597      13.58576218  T      -0.00056047       0.01766351      -0.00055860
Cu       3.77201462       8.72095553      13.63522094  T      -0.00004177       0.00489836      -0.01713506
Cu       6.28764735       8.71660401      13.61607869  T       0.00432748       0.00572126      -0.00578677
Cu       8.77491399       8.73183308      13.61806145  T      -0.00357357       0.00970357      -0.00505575
Cu      11.27438741       8.75481728      13.61246547  T       0.01445022       0.00462263      -0.00541049
Cu       1.24498295      11.26202594      13.60808284  T      -0.01035137       0.00183562      -0.01614711
Cu       3.74007219      11.25219754      13.58261467  T      -0.01835261      -0.00616216      -0.00106384
Cu       6.25422688      11.25453137      13.57149382  T       0.00032950      -0.00130370      -0.01094521
Cu       8.76226104      11.26019184      13.58065190  T      -0.00858020       0.00022614      -0.00538400
Cu      11.26620037      11.26828489      13.58816256  T       0.01650830       0.00189813      -0.00219420
Cu      12.51257513       0.00970550      15.39983734  T      -0.01301040       0.01386931      -0.07538908
Cu       2.50530160       0.00601528      15.39737976  T       0.00885754       0.01018480      -0.08743295
Cu       5.00504197      12.46249324      15.36901591  T       0.00949143      -0.00150463      -0.05034605
Cu       7.51121950      12.47573590      15.36535865  T      -0.00509824       0.00421359      -0.07063155
Cu      10.01371433      12.50510409      15.38143666  T      -0.00227287      -0.00000687      -0.05888225
Cu       0.11372958       2.50688239      15.37849440  T       0.01778623       0.00826691      -0.04103795
Cu       2.58023671       2.49743145      15.37324238  T      -0.00724223       0.00978140      -0.05006061
Cu       5.07292504       2.39960900      15.47626614  T      -0.03669756      -0.02731005      -0.07631138
Cu       7.65079350       2.46637772      15.47014903  T       0.06602264      -0.03360990      -0.08910629
Cu      10.16615791       2.46298299      15.46984607  T       0.04100800      -0.05770216      -0.07213688
Cu      12.42111965       4.98433152      15.32137894  T       0.01219597      -0.00932314      -0.06548298
Cu       2.30519218       4.97519032      15.40923712  T      -0.03244430      -0.02037954      -0.02505089
Pd       4.74147308       4.97151738      15.77762656  T       0.01128452      -0.00498857       0.00563448
Y        7.55715675       4.97749361      17.23873197  T      -0.04649004       0.00684464       0.07210797
Cu       9.97048036       5.01488939      15.44857173  T       0.07485301       0.00468717      -0.15393909
Cu       0.07043203       7.52057295      15.37553088  T       0.03388849       0.00792518      -0.04112080
Cu       2.51231697       7.48672910      15.47252156  T      -0.00200370       0.00717366      -0.03045136
Cu       5.04579932       7.56180375      15.46374162  T      -0.02111528       0.04626517      -0.08162729
Cu       7.61197913       7.49596303      15.47154512  T       0.04800301       0.07491198      -0.10219236
Cu      10.13806990       7.56421943      15.47608214  T       0.04973489       0.05222257      -0.07122130
Cu      12.50222635      10.01959921      15.39840987  T      -0.00198664      -0.01091561      -0.08256544
Cu       2.49893126      10.02118212      15.39098070  T       0.00239764      -0.00290967      -0.08042599
Cu       5.00132372      10.02348917      15.36619640  T       0.00650595      -0.00001961      -0.05163593
Cu       7.50357149      10.01729917      15.36349307  T      -0.00055467      -0.00170270      -0.06565454
Cu      10.00697129      10.03798222      15.38102234  T      -0.00748671      -0.00774217      -0.05468923
O        6.32353918       3.31673635      16.61808171  T      -0.12756195       0.04299083       0.12620777
O        6.26209942       6.58500865      16.58941008  T      -0.13251752      -0.06431930       0.12950825
O        9.04500389       6.43064712      16.56277083  T       0.05324305       0.10099694       0.09240252
O        9.10209815       3.59321437      16.57860663  T       0.03679535      -0.12372390       0.07789673
C        1.84352218       7.13525027      17.30179445  T      -0.07855937       0.01025580       0.15385433
O        2.56740617       7.52294545      18.20289778  T      -0.13043677       0.02272147      -0.11757500
H        0.91436451       6.53541936      17.55996863  T       0.13677454       0.10185680      -0.01367104
C        4.19290311       4.81564589      17.68597008  T       0.10432020       0.01603540       0.33110563
O        4.63544883       4.78697480      18.77077953  T      -0.27540818       0.01179676      -0.45118618
109
Lattice="12.51515363 0.0 0.0 0.0 12.51515363 0.0 0.0 0.0 25.30973" Properties=species:S:1:pos:R:3:move_mask:L:1:forces:R:3 energy=-452.68716809 stress="0.007823540774013522 0.00013032990700846458 0.00041273506392186147 0.00013032990700846458 0.008557255936710771 -0.0002743134772373281 0.00041273506392186147 -0.0002743134772373281 0.0031940597769082118" free_energy=-452.68876115 pbc="T T T"
Cu       1.25151999       1.25151999      10.00000011  F       0.00089515      -0.01065969      -0.06491234
Cu       3.75454997       1.25151999      10.00000011  F       0.00797437       0.00571355      -0.06247105
Cu       6.25757994       1.25151999      10.00000011  F      -0.00123853       0.01731099      -0.05593733
Cu       8.76061004       1.25151999      10.00000011  F       0.01105204       0.01618849      -0.05883780
Cu      11.26364002       1.25151999      10.00000011  F      -0.02129148       0.00232905      -0.07334502
Cu       1.25151999       3.75454997      10.00000011  F       0.00085410       0.01672648      -0.06874852
Cu       3.75454997       3.75454997      10.00000011  F       0.01797027      -0.00451566      -0.05182732
Cu       6.25757994       3.75454997      10.00000011  F      -0.01366224      -0.02178647      -0.07902388
Cu       8.76061004       3.75454997      10.00000011  F       0.01944310      -0.02579494      -0.06873651
Cu      11.26364002       3.75454997      10.00000011  F      -0.02011119      -0.00315076      -0.06480907
Cu       1.25151999       6.25757994      10.00000011  F      -0.00848326      -0.01036707      -0.06496024
Cu       3.75454997       6.25757994      10.00000011  F       0.02187817       0.00643264      -0.04102070
Cu       6.25757994       6.25757994      10.00000011  F      -0.02182813       0.01823073      -0.07964352
Cu       8.76061004       6.25757994      10.00000011  F       0.01451707       0.01562641      -0.07066551
Cu      11.26364002       6.25757994      10.00000011  F      -0.00170467      -0.00230226      -0.05205535
Cu       1.25151999       8.76061004      10.00000011  F      -0.00757776       0.01300916      -0.06239041
Cu       3.75454997       8.76061004      10.00000011  F       0.01271187       0.00232371      -0.05929265
Cu       6.25757994       8.76061004      10.00000011  F      -0.01366488      -0.02069608      -0.05268222
Cu       8.76061004       8.76061004      10.00000011  F       0.00771963      -0.01607767      -0.04576826
Cu      11.26364002       8.76061004      10.00000011  F       0.00005813      -0.00324850      -0.07200115
Cu       1.25151999      11.26364002      10.00000011  F       0.00096284      -0.00795758      -0.00854289
Cu       3.75454997      11.26364002      10.00000011  F      -0.00985903      -0.00991017      -0.07715057
Cu       6.25757994      11.26364002      10.00000011  F      -0.00366980       0.00552036      -0.07564639
Cu       8.76061004      11.26364002      10.00000011  F       0.00022688       0.00786457      -0.05937335
Cu      11.26364002      11.26364002      10.00000011  F       0.01164004       0.00637032      -0.07445491
Cu       0.00000000       0.00000000      11.76991004  F       0.00737812       0.03985345       0.13842562
Cu       2.50302998       0.00000000      11.76991004  F       0.05507655       0.02275589       0.12956507
Cu       5.00605995       0.00000000      11.76991004  F       0.04161343       0.08880248       0.12642196
Cu       7.50909005       0.00000000      11.76991004  F       0.03042253       0.02942944       0.09651995
Cu      10.01212003       0.00000000      11.76991004  F       0.00166046       0.08144109       0.11261175
Cu       0.00000000       2.50302998      11.76991004  F      -0.03531938       0.00560734       0.10287394
Cu       2.50302998       2.50302998      11.76991004  F       0.10165429       0.01025858       0.10792633
Cu       5.00605995       2.50302998      11.76991004  F       0.04038189      -0.02870160       0.12815256
Cu       7.50909005       2.50302998      11.76991004  F      -0.02413270       0.02487919       0.15652838
Cu      10.01212003       2.50302998      11.76991004  F       0.03165143      -0.10402620       0.02313632
Cu       0.00000000       5.00605995      11.76991004  F      -0.09109881      -0.00696647       0.04326644
Cu       2.50302998       5.00605995      11.76991004  F       0.09732773       0.00856728       0.09358567
Cu       5.00605995       5.00605995      11.76991004  F      -0.02586631       0.01257269       0.24354008
Cu       7.50909005       5.00605995      11.76991004  F      -0.09994871      -0.01873374       0.19011215
Cu      10.01212003       5.00605995      11.76991004  F       0.03407893       0.03119812       0.07087245
Cu       0.00000000       7.50909005      11.76991004  F      -0.07110515      -0.01616715       0.10339648
Cu       2.50302998       7.50909005      11.76991004  F       0.09056035      -0.03874061       0.15336333
Cu       5.00605995       7.50909005      11.76991004  F       0.00260302      -0.00983710       0.15481740
Cu       7.50909005       7.50909005      11.76991004  F      -0.05911422      -0.02538640       0.15689084
Cu      10.01212003       7.50909005      11.76991004  F       0.04990043       0.07020240       0.05480955
Cu       0.00000000      10.01212003      11.76991004  F      -0.01995836      -0.02229763       0.11826553
Cu       2.50302998      10.01212003      11.76991004  F       0.06054460      -0.03974334       0.11676662
Cu       5.00605995      10.01212003      11.76991004  F       0.00663041      -0.14354183       0.15179550