109
Lattice="12.51515363 0.0 0.0 0.0 12.51515363 0.0 0.0 0.0 25.30973" Properties=species:S:1:pos:R:3:move_mask:L:1:forces:R:3 energy=-453.38207195 stress="0.00847167707591605 4.987274122131542e-05 -4.0269030993464865e-05 4.987274122131542e-05 0.008763843653509889 2.2285245918874913e-06 -4.0269030993464865e-05 2.2285245918874913e-06 0.003008854097242361" free_energy=-453.38014712 pbc="T T T"
Cu       1.25151999       1.25151999      10.00000011  F       0.00157437       0.00691600      -0.06831302
Cu       3.75454997       1.25151999      10.00000011  F       0.00011689       0.00853946      -0.06734123
Cu       6.25757994       1.25151999      10.00000011  F       0.00401882       0.00655838      -0.04984646
Cu       8.76061004       1.25151999      10.00000011  F       0.00403329       0.01566956      -0.06308379
Cu      11.26364002       1.25151999      10.00000011  F      -0.01019413       0.00673681      -0.07075020
Cu       1.25151999       3.75454997      10.00000011  F       0.00935996       0.00730376      -0.06478780
Cu       3.75454997       3.75454997      10.00000011  F      -0.00000209      -0.00635936      -0.05516097
Cu       6.25757994       3.75454997      10.00000011  F      -0.02093880      -0.01693596      -0.07612464
Cu       8.76061004       3.75454997      10.00000011  F       0.02972683      -0.02427180      -0.06786791
Cu      11.26364002       3.75454997      10.00000011  F      -0.01585849      -0.00385707      -0.05735946
Cu       1.25151999       6.25757994      10.00000011  F       0.01008893      -0.00738967      -0.06403339
Cu       3.75454997       6.25757994      10.00000011  F      -0.00034568       0.00472486      -0.05698864
Cu       6.25757994       6.25757994      10.00000011  F      -0.01940804       0.01951764      -0.08002818
Cu       8.76061004       6.25757994      10.00000011  F       0.02405323       0.02295705      -0.07042611
Cu      11.26364002       6.25757994      10.00000011  F      -0.01244113       0.00067571      -0.05765505
Cu       1.25151999       8.76061004      10.00000011  F       0.00166590      -0.01001019      -0.06717596
Cu       3.75454997       8.76061004      10.00000011  F       0.00137983      -0.00754469      -0.06848799
Cu       6.25757994       8.76061004      10.00000011  F       0.00605109      -0.00968504      -0.04965612
Cu       8.76061004       8.76061004      10.00000011  F       0.00012735      -0.01508550      -0.06084438
Cu      11.26364002       8.76061004      10.00000011  F      -0.00996202      -0.00529071      -0.06888971
Cu       1.25151999      11.26364002      10.00000011  F      -0.00497301       0.00310819      -0.00685987
Cu       3.75454997      11.26364002      10.00000011  F       0.00109193       0.00024450      -0.05788396
Cu       6.25757994      11.26364002      10.00000011  F      -0.00210388      -0.00040292      -0.06693799
Cu       8.76061004      11.26364002      10.00000011  F      -0.00796376       0.00154370      -0.06415350
Cu      11.26364002      11.26364002      10.00000011  F       0.01251132       0.00141792      -0.05585550
Cu       0.00000000       0.00000000      11.76991004  F      -0.00791264       0.04761383       0.14764642
Cu       2.50302998       0.00000000      11.76991004  F       0.03166403       0.03373225       0.13004412
Cu       5.00605995       0.00000000      11.76991004  F       0.04907624       0.10133506       0.12088931
Cu       7.50909005       0.00000000      11.76991004  F       0.02563614       0.06198662       0.11236760
Cu      10.01212003       0.00000000      11.76991004  F      -0.00845216       0.09447508       0.14833224
Cu       0.00000000       2.50302998      11.76991004  F      -0.04409410       0.05929561       0.15126930
Cu       2.50302998       2.50302998      11.76991004  F       0.01917012       0.04029191       0.12201828
Cu       5.00605995       2.50302998      11.76991004  F       0.01148981      -0.02205642       0.11213638
Cu       7.50909005       2.50302998      11.76991004  F      -0.04400859      -0.02229288       0.10503860
Cu      10.01212003       2.50302998      11.76991004  F       0.06104656      -0.07558128       0.05115801
Cu       0.00000000       5.00605995      11.76991004  F      -0.09078770       0.00542758       0.14154496
Cu       2.50302998       5.00605995      11.76991004  F       0.03181004       0.00156355       0.15085442
Cu       5.00605995       5.00605995      11.76991004  F      -0.03002236      -0.00074912       0.22234223
Cu       7.50909005       5.00605995      11.76991004  F      -0.09916349      -0.00089523       0.13843275
Cu      10.01212003       5.00605995      11.76991004  F       0.03847232       0.00791196       0.09202111
Cu       0.00000000       7.50909005      11.76991004  F      -0.04557543      -0.06699351       0.15470104
Cu       2.50302998       7.50909005      11.76991004  F       0.01587296      -0.04813543       0.12311433
Cu       5.00605995       7.50909005      11.76991004  F       0.01341873       0.02376666       0.11054021
Cu       7.50909005       7.50909005      11.76991004  F      -0.05563976       0.03342087       0.09909713
Cu      10.01212003       7.50909005      11.76991004  F       0.06902761       0.07736588       0.05371069
Cu       0.00000000      10.01212003      11.76991004  F      -0.00416433      -0.04155153       0.14798846
Cu       2.50302998      10.01212003      11.76991004  F       0.02264986      -0.04156528       0.13808845
Cu       5.00605995      10.01212003      11.76991004  F       0.05351505      -0.10315705       0.11776499
Cu       7.50909005      10.01212003      11.76991004  F       0.02817385      -0.05547870       0.11578005
Cu      10.01212003      10.01212003      11.76991004  F      -0.01449509      -0.07852899       0.14219256
Cu       1.26639400       1.25450936      13.58833239  T      -0.00118426      -0.01267553       0.00601956
Cu       3.79035933       1.26212809      13.61165252  T      -0.00308183      -0.00702278      -0.01680810
Cu       6.29269959       1.28327169      13.62103914  T       0.00164668      -0.00713983      -0.01197218
Cu       8.76843890       1.27934544      13.62340914  T      -0.00462737      -0.01020750      -0.01070578
Cu      11.26830467       1.27437667      13.61736644  T       0.00575719      -0.00664890      -0.01244358
Cu       1.23179686       3.77659791      13.60505503  T      -0.00208685      -0.00557483      -0.00620135
Cu       3.74596232       3.75596769      13.60303987  T      -0.00875076      -0.00196551      -0.00828739
Cu       6.25107932       3.77876504      13.60580167  T      -0.00156345       0.01527334      -0.03459500
Cu       8.73352925       3.75645891      13.55041133  T      -0.00272659       0.01048296      -0.04172519
Cu      11.23428085       3.77154667      13.61673446  T      -0.00676690       0.00126685      -0.00330522
Cu       1.23234941       6.22958367      13.60896842  T      -0.00421452       0.00488415      -0.00664804
Cu       3.74597196       6.25349287      13.60167745  T      -0.01384195      -0.00195563      -0.01027635
Cu       6.24981254       6.23532274      13.60441267  T      -0.00250312      -0.01614079      -0.03242460
Cu       8.73246534       6.26180481      13.54511855  T      -0.00327785      -0.00976097      -0.04154016
Cu      11.23503376       6.24480009      13.61909307  T      -0.00660319      -0.00500195      -0.00609316
Cu       1.26599452       8.75326365      13.59009749  T       0.00026800       0.01311218       0.00196248
Cu       3.79005246       8.74799715      13.61142929  T      -0.00272253       0.00817764      -0.01306243
Cu       6.29253952       8.73053525      13.62149826  T      -0.00094288       0.00969701      -0.01028249
Cu       8.76787472       8.73809991      13.62338510  T      -0.00528388       0.01455086      -0.00971936
Cu      11.26545559       8.74616243      13.61423538  T       0.00325026       0.01224436      -0.01224987
Cu       1.25042404      11.26222756      13.60860472  T      -0.00189629       0.00022408      -0.01773443
Cu       3.74646305      11.26246397      13.58200900  T      -0.02181208       0.00010153      -0.00224164
Cu       6.26000713      11.26494673      13.57434345  T      -0.00295845       0.00335225      -0.01029341
Cu       8.76684797      11.26623328      13.58278424  T      -0.00310737       0.00147707      -0.00402245
Cu      11.27415075      11.26734425      13.58877278  T       0.01144906       0.00019520      -0.00169624
Cu       0.00248789       0.00704728      15.39947996  T      -0.00378638       0.01597870      -0.08455151
Cu       2.51126207      12.50844200      15.39548988  T      -0.00200324       0.01018472      -0.08350167
Cu       5.00732110      12.48340506      15.37124367  T       0.01051458       0.00540327      -0.05177242
Cu       7.51393855      12.49912372      15.36978684  T       0.00135379       0.00959692      -0.06023749
Cu      10.02152604      12.50229456      15.38055917  T      -0.01600051       0.01294283      -0.05842127
Cu       0.06686659       2.50588806      15.38845125  T       0.02304780       0.00313719      -0.04633102
Cu       2.53248965       2.47770444      15.37109459  T      -0.00464341       0.00634326      -0.04777228
Cu       5.02525044       2.41891262      15.47138693  T      -0.04320338      -0.06540869      -0.09638663
Cu       7.57239032       2.52445379      15.48516327  T       0.05847081      -0.08202443      -0.09792389
Cu      10.09607093       2.47024590      15.45879509  T       0.03842315      -0.06358975      -0.09250046
Cu      12.35498307       5.00849252      15.52788508  T       0.02603873      -0.00161488      -0.08706753
Cu       2.26907845       4.98897514      15.52671577  T      -0.03440289      -0.00592370      -0.10986769
Pd       4.80060255       5.00988433      15.65616112  T      -0.01421591      -0.00424217      -0.09570982
Y        7.49169649       5.00886009      17.25349893  T      -0.04685286      -0.00185585       0.06045522
Cu       9.84327108       5.02205494      15.38060447  T       0.09508399       0.00472074      -0.14602146
Cu       0.05638089       7.51509007      15.37942757  T       0.01570950      -0.00516112      -0.05015751
Cu       2.52901269       7.51672505      15.36893517  T      -0.00607292      -0.00475752      -0.05143446
Cu       5.02218998       7.59982579      15.47208801  T      -0.04265336       0.06671857      -0.09402822
Cu       7.56566893       7.49146546      15.48404154  T       0.01971492       0.10125540      -0.12132979
Cu      10.09956541       7.55555381      15.46512075  T       0.04208719       0.06002130      -0.08705060
Cu       0.00218690      10.01091131      15.39942048  T      -0.00433359      -0.00723377      -0.08585852
Cu       2.51161474      10.00553443      15.39515099  T       0.00077291      -0.01310967      -0.08386247
Cu       5.00686956      10.04823938      15.37154435  T       0.01485455      -0.00994220      -0.05353674
Cu       7.51347886      10.03220760      15.36934670  T       0.00019979      -0.01753219      -0.06064979
Cu      10.02220761      10.03624248      15.37941264  T      -0.01800721      -0.01225438      -0.05739771
O        6.18722426       3.40312546      16.64733798  T      -0.07496038       0.03206568       0.13008191
O        6.17130911       6.60724808      16.65108458  T      -0.08348191      -0.03436045       0.13381052
O        8.98274025       6.44158574      16.56038463  T       0.06686399       0.08507530       0.11763904
O        9.02892167       3.59849314      16.58744580  T       0.03914997      -0.10399932       0.10366162
C       11.98578403       5.00536185      17.46314550  T      -0.38088620      -0.25984739      -0.08796325
O        0.11369654       5.54573665      18.32752415  T       0.14606153       0.10905219       0.17621241
H       11.01874837       4.45432365      17.71365083  T       0.31293745       0.13505330      -0.04021115
C        3.37967544       5.00518051      17.13138657  T      -0.04338202      -0.00601613      -0.52020302
O        3.50299776       5.00727980      18.29231883  T      -0.04313398       0.00009694       0.53367224
109
Lattice="12.51515363 0.0 0.0 0.0 12.51515363 0.0 0.0 0.0 25.30973" Properties=species:S:1:pos:R:3:move_mask:L:1:forces:R:3 energy=-453.37628 stress="0.008458838472647872 6.518537260133762e-05 4.023587609698818e-05 6.518537260133762e-05 0.008761492558161787 5.1283596910166576e-05 4.023587609698818e-05 5.1283596910166576e-05 0.0033123477281487997" free_energy=-453.3743511 pbc="T T T"
Cu       1.25151999       1.25151999      10.00000011  F       0.00131138       0.00735659      -0.06917749
Cu       3.75454997       1.25151999      10.00000011  F       0.00013465       0.00874039      -0.06810164
Cu       6.25757994       1.25151999      10.00000011  F       0.00408296       0.00686357      -0.05059722
Cu       8.76061004       1.25151999      10.00000011  F       0.00418077       0.01589461      -0.06377112
Cu      11.26364002       1.25151999      10.00000011  F      -0.01021416       0.00688588      -0.07167655
Cu       1.25151999       3.75454997      10.00000011  F       0.00915283       0.00737747      -0.06509868
Cu       3.75454997       3.75454997      10.00000011  F      -0.00005953      -0.00623891      -0.05560327
Cu       6.25757994       3.75454997      10.00000011  F      -0.02079568      -0.01688749      -0.07669482
Cu       8.76061004       3.75454997      10.00000011  F       0.02964066      -0.02409273      -0.06811400
Cu      11.26364002       3.75454997      10.00000011  F      -0.01571006      -0.00378775      -0.05762625
Cu       1.25151999       6.25757994      10.00000011  F       0.00974031      -0.00731082      -0.06431130
Cu       3.75454997       6.25757994      10.00000011  F      -0.00036339       0.00464776      -0.05755387
Cu       6.25757994       6.25757994      10.00000011  F      -0.01927143       0.01952978      -0.08062857
Cu       8.76061004       6.25757994      10.00000011  F       0.02404655       0.02289618      -0.07066367
Cu      11.26364002       6.25757994      10.00000011  F      -0.01223444       0.00075737      -0.05776860
Cu       1.25151999       8.76061004      10.00000011  F       0.00132860      -0.01050200      -0.06785433
Cu       3.75454997       8.76061004      10.00000011  F       0.00145374      -0.00772335      -0.06924009
Cu       6.25757994       8.76061004      10.00000011  F       0.00608266      -0.00996943      -0.05050735
Cu       8.76061004       8.76061004      10.00000011  F       0.00025919      -0.01526425      -0.06140987
Cu      11.26364002       8.76061004      10.00000011  F      -0.00988986      -0.00553308      -0.06938473
Cu       1.25151999      11.26364002      10.00000011  F      -0.00511029       0.00304481      -0.00808640
Cu       3.75454997      11.26364002      10.00000011  F       0.00118133       0.00021039      -0.05870015
Cu       6.25757994      11.26364002      10.00000011  F      -0.00224031      -0.00047381      -0.06789025
Cu       8.76061004      11.26364002      10.00000011  F      -0.00764133       0.00142621      -0.06485745
Cu      11.26364002      11.26364002      10.00000011  F       0.01231207       0.00140050      -0.05660517
Cu       0.00000000       0.00000000      11.76991004  F      -0.00827895       0.04809135       0.14590495
Cu       2.50302998       0.00000000      11.76991004  F       0.03125990       0.03424497       0.12831835
Cu       5.00605995       0.00000000      11.76991004  F       0.04905391       0.10159766       0.11910633
Cu       7.50909005       0.00000000      11.76991004  F       0.02581189       0.06198375       0.11054500
Cu      10.01212003       0.00000000      11.76991004  F      -0.00798885       0.09484035       0.14672426
Cu       0.00000000       2.50302998      11.76991004  F      -0.04434668       0.05961200       0.14996425
Cu       2.50302998       2.50302998      11.76991004  F       0.01851204       0.04050653       0.12061438
Cu       5.00605995       2.50302998      11.76991004  F       0.01136251      -0.02208366       0.11028156
Cu       7.50909005       2.50302998      11.76991004  F      -0.04345025      -0.02243093       0.10271709
Cu      10.01212003       2.50302998      11.76991004  F       0.06131528      -0.07575373       0.04961171
Cu       0.00000000       5.00605995      11.76991004  F      -0.09131888       0.00525179       0.13989188
Cu       2.50302998       5.00605995      11.76991004  F       0.03115941       0.00155672       0.14928610
Cu       5.00605995       5.00605995      11.76991004  F      -0.03045180      -0.00081654       0.22041547
Cu       7.50909005       5.00605995      11.76991004  F      -0.09911542      -0.00094251       0.13522022
Cu      10.01212003       5.00605995      11.76991004  F       0.03941959       0.00786617       0.08979529
Cu       0.00000000       7.50909005      11.76991004  F      -0.04581655      -0.06720263       0.15290032
Cu       2.50302998       7.50909005      11.76991004  F       0.01509167      -0.04851537       0.12180995
Cu       5.00605995       7.50909005      11.76991004  F       0.01338630       0.02385762       0.10873575
Cu       7.50909005       7.50909005      11.76991004  F      -0.05526540       0.03363733       0.09682887
Cu      10.01212003       7.50909005      11.76991004  F       0.06935605       0.07737669       0.05220978
Cu       0.00000000      10.01212003      11.76991004  F      -0.00447298      -0.04188302       0.14621559
Cu       2.50302998      10.01212003      11.76991004  F       0.02249517      -0.04189397       0.13612179
Cu       5.00605995      10.01212003      11.76991004  F       0.05317926      -0.10333988       0.11619430
Cu       7.50909005      10.01212003      11.76991004  F       0.02850148      -0.05534431       0.11398202
Cu      10.01212003      10.01212003      11.76991004  F      -0.01424716      -0.07861317       0.14044739
Cu       1.26638261       1.25438709      13.58839035  T      -0.00129756      -0.01017286       0.00228566
Cu       3.79032954       1.26206026      13.61149028  T      -0.00365903      -0.00656759      -0.01974780
Cu       6.29271549       1.28320286      13.62092373  T       0.00154178      -0.00586974      -0.01477628
Cu       8.76839422       1.27924694      13.62330588  T      -0.00323420      -0.00924508      -0.01498716
Cu      11.26836023       1.27431247      13.61724622  T       0.00583855      -0.00585959      -0.01616238
Cu       1.23177671       3.77654410      13.60499505  T      -0.00307521      -0.00479587      -0.01048370
Cu       3.74587784       3.75594879      13.60295989  T      -0.00768973      -0.00247724      -0.01259623
Cu       6.25106418       3.77891247      13.60546783  T      -0.00017890       0.01274065      -0.03229611
Cu       8.73350285       3.75656003      13.55000865  T      -0.00286276       0.00960729      -0.03811834
Cu      11.23421552       3.77155881      13.61670257  T      -0.00541074      -0.00028601      -0.00765907
Cu       1.23230873       6.22963085      13.60890439  T      -0.00582926       0.00388076      -0.00987521
Cu       3.74583842       6.25347397      13.60157823  T      -0.01229767      -0.00130966      -0.01438017
Cu       6.24978838       6.23516706      13.60409984  T      -0.00124449      -0.01365975      -0.03043614
Cu       8.73243368       6.26171057      13.54471765  T      -0.00366957      -0.00884401      -0.03771935
Cu      11.23497005       6.24475179      13.61903436  T      -0.00457854      -0.00296192      -0.00997661
Cu       1.26599715       8.75339018      13.59011647  T      -0.00000510       0.01091722      -0.00161561
Cu       3.79002617       8.74807612      13.61130325  T      -0.00338552       0.00735888      -0.01639255
Cu       6.29253039       8.73062874      13.62139904  T      -0.00112042       0.00848747      -0.01410491
Cu       8.76782378       8.73824033      13.62329120  T      -0.00381097       0.01319614      -0.01401682
Cu      11.26548688       8.74628057      13.61411718  T       0.00348280       0.01089683      -0.01583488
Cu       1.25040577      11.26222969      13.60843363  T      -0.00215944       0.00010251      -0.01982150
Cu       3.74625267      11.26246497      13.58198724  T      -0.01943867       0.00016271      -0.00511025
Cu       6.25997847      11.26497902      13.57424423  T      -0.00297137       0.00321619      -0.01232000
Cu       8.76681794      11.26624755      13.58274552  T      -0.00242232       0.00141007      -0.00688850
Cu      11.27426113      11.26734613      13.58875633  T       0.00950439       0.00028141      -0.00458263
Cu       0.00245134       0.00720147      15.39866423  T      -0.00423075       0.01497035      -0.07960513
Cu       2.51124279      12.50854025      15.39468427  T      -0.00198031       0.00938840      -0.07849834
Cu       5.00742260      12.48345713      15.37074431  T       0.00977299       0.00293697      -0.04914472
Cu       7.51395156      12.49921633      15.36920548  T       0.00097100       0.00713807      -0.05672872
Cu      10.02137160      12.50241946      15.37999527  T      -0.01463281       0.01012032      -0.05550961
Cu       0.06708898       2.50591835      15.38800428  T       0.02032347       0.00453068      -0.04289618
Cu       2.53244484       2.47776563      15.37063370  T      -0.00487423       0.00728348      -0.04369246
Cu       5.02483356       2.41828161      15.47045680  T      -0.02818827      -0.05018768      -0.08078058
Cu       7.57295450       2.52366233      15.48421846  T       0.04800895      -0.06591576      -0.08030018
Cu      10.09644162       2.46963229      15.45790241  T       0.02885279      -0.05083522      -0.07979988
Cu      12.35523425       5.00847700      15.52704505  T       0.02100895      -0.00239000      -0.06757777
Cu       2.26874642       4.98891794      15.52565580  T      -0.03777613      -0.00542440      -0.10619307
Pd       4.80046539       5.00984341      15.65523757  T      -0.00970689      -0.00296866      -0.05476817
Y        7.49124444       5.00884219      17.25408232  T      -0.03721771      -0.00165504       0.05929438
Cu       9.84418857       5.02210050      15.37919573  T       0.08059976       0.00394318      -0.12101229
Cu       0.05653245       7.51504026      15.37894339  T       0.01463452      -0.00511937      -0.04645211
Cu       2.52895399       7.51667911      15.36843884  T      -0.00665675      -0.00632978      -0.04685306
Cu       5.02177836       7.60046944      15.47118091  T      -0.02833835       0.05108144      -0.07806640
Cu       7.56585916       7.49244239      15.48287097  T       0.01419453       0.08216396      -0.10101388
Cu      10.09997152       7.55613289      15.46428072  T       0.03143178       0.04744552      -0.07422948
Cu       0.00214510      10.01084148      15.39859210  T      -0.00464188      -0.00618440      -0.08085756
Cu       2.51162225      10.00540790      15.39434183  T       0.00072700      -0.01176192      -0.07924252
Cu       5.00701285      10.04814352      15.37102778  T       0.01391932      -0.00699515      -0.05090273
Cu       7.51348074      10.03203839      15.36876154  T       0.00010299      -0.01398731      -0.05701399
Cu      10.02203390      10.03612434      15.37885886  T      -0.01660852      -0.00935607      -0.05451094
O        6.18650100       3.40343483      16.64859309  T      -0.07635545       0.01967363       0.10541657
O        6.17050363       6.60691655      16.65237563  T      -0.08420337      -0.02275336       0.10940227
O        8.98338529       6.44240661      16.56151977  T       0.06752126       0.08320979       0.09882940
O        9.02929938       3.59748967      16.58844604  T       0.04150293      -0.10126432       0.08502249
C       11.98210896       5.00285469      17.46229686  T      -0.00244593       0.01758694       0.17534572
O        0.11510587       5.54678880      18.32922446  T      -0.10507014      -0.09613250      -0.15056614
H       11.02176778       4.45562672      17.71326308  T       0.18657952       0.06302116       0.00208695
C        3.37925681       5.00512244      17.12636740  T       0.05977517      -0.00404749       0.40066501
O        3.50258150       5.00728080      18.29746809  T      -0.13355423      -0.00224533      -0.39415011
109
Lattice="12.51515363 0.0 0.0 0.0 12.51515363 0.0 0.0 0.0 25.30973" Properties=species:S:1:pos:R:3:move_mask:L:1:forces:R:3 energy=-453.37991604999996 stress="0.008386526744654893 5.259814611320536e-05 8.868135894346962e-06 5.259814611320536e-05 0.008689068102272487 3.6875722210014166e-05 8.868135894346962e-06 3.6875722210014166e-05 0.0031270730798071073" free_energy=-453.37797691 pbc="T T T"
Cu       1.25151999       1.25151999      10.00000011  F       0.00157705       0.00692915      -0.06940281
Cu       3.75454997       1.25151999      10.00000011  F       0.00049615       0.00846504      -0.06786455
Cu       6.25757994       1.25151999      10.00000011  F       0.00406678       0.00661345      -0.05022677
Cu       8.76061004       1.25151999      10.00000011  F       0.00384306       0.01559104      -0.06370659
Cu      11.26364002       1.25151999      10.00000011  F      -0.01049708       0.00652102      -0.07204066
Cu       1.25151999       3.75454997      10.00000011  F       0.00961461       0.00725396      -0.06591664
Cu       3.75454997       3.75454997      10.00000011  F       0.00027693      -0.00629555      -0.05584747
Cu       6.25757994       3.75454997      10.00000011  F      -0.02086438      -0.01695632      -0.07664064
Cu       8.76061004       3.75454997      10.00000011  F       0.02925009      -0.02428543      -0.06861150
Cu      11.26364002       3.75454997      10.00000011  F      -0.01606522      -0.00401011      -0.05858702
Cu       1.25151999       6.25757994      10.00000011  F       0.01021015      -0.00721769      -0.06517339
Cu       3.75454997       6.25757994      10.00000011  F      -0.00000336       0.00470836      -0.05783142
Cu       6.25757994       6.25757994      10.00000011  F      -0.01934892       0.01958515      -0.08058206
Cu       8.76061004       6.25757994      10.00000011  F       0.02364615       0.02306852      -0.07124611
Cu      11.26364002       6.25757994      10.00000011  F      -0.01259787       0.00094144      -0.05881290
Cu       1.25151999       8.76061004      10.00000011  F       0.00160909      -0.01002688      -0.06814538
Cu       3.75454997       8.76061004      10.00000011  F       0.00183741      -0.00740449      -0.06905785
Cu       6.25757994       8.76061004      10.00000011  F       0.00604384      -0.00966011      -0.05020302
Cu       8.76061004       8.76061004      10.00000011  F      -0.00007615      -0.01490317      -0.06143698
Cu      11.26364002       8.76061004      10.00000011  F      -0.01018990      -0.00510048      -0.06986843
Cu       1.25151999      11.26364002      10.00000011  F      -0.00497424       0.00312506      -0.00825178
Cu       3.75454997      11.26364002      10.00000011  F       0.00148164       0.00027534      -0.05844024
Cu       6.25757994      11.26364002      10.00000011  F      -0.00225196      -0.00040537      -0.06732626
Cu       8.76061004      11.26364002      10.00000011  F      -0.00794673       0.00149565      -0.06450073
Cu      11.26364002      11.26364002      10.00000011  F       0.01214135       0.00147358      -0.05656280
Cu       0.00000000       0.00000000      11.76991004  F      -0.00822384       0.04785594       0.14505278
Cu       2.50302998       0.00000000      11.76991004  F       0.03183957       0.03398153       0.12761467
Cu       5.00605995       0.00000000      11.76991004  F       0.04936035       0.10140774       0.11888113
Cu       7.50909005       0.00000000      11.76991004  F       0.02544377       0.06175008       0.11015791
Cu      10.01212003       0.00000000      11.76991004  F      -0.00862226       0.09426705       0.14630068
Cu       0.00000000       2.50302998      11.76991004  F      -0.04405452       0.05888981       0.14985410
Cu       2.50302998       2.50302998      11.76991004  F       0.01923652       0.04003259       0.12062898
Cu       5.00605995       2.50302998      11.76991004  F       0.01173100      -0.02227561       0.11060278
Cu       7.50909005       2.50302998      11.76991004  F      -0.04443494      -0.02298893       0.10268439
Cu      10.01212003       2.50302998      11.76991004  F       0.06070685      -0.07655914       0.04911819
Cu       0.00000000       5.00605995      11.76991004  F      -0.09088801       0.00516572       0.13970874
Cu       2.50302998       5.00605995      11.76991004  F       0.03219827       0.00149164       0.14901632
Cu       5.00605995       5.00605995      11.76991004  F      -0.03048626      -0.00086186       0.22024220
Cu       7.50909005       5.00605995      11.76991004  F      -0.10035361      -0.00099559       0.13443899
Cu      10.01212003       5.00605995      11.76991004  F       0.03890239       0.00778487       0.08904881
Cu       0.00000000       7.50909005      11.76991004  F      -0.04554823      -0.06647506       0.15274386
Cu       2.50302998       7.50909005      11.76991004  F       0.01582555      -0.04806346       0.12180486
Cu       5.00605995       7.50909005      11.76991004  F       0.01373663       0.02405911       0.10900772
Cu       7.50909005       7.50909005      11.76991004  F      -0.05627609       0.03423412       0.09671921
Cu      10.01212003       7.50909005      11.76991004  F       0.06875403       0.07821713       0.05167608
Cu       0.00000000      10.01212003      11.76991004  F      -0.00442245      -0.04144474       0.14534664
Cu       2.50302998      10.01212003      11.76991004  F       0.02316843      -0.04145003       0.13540265
Cu       5.00605995      10.01212003      11.76991004  F       0.05346710      -0.10300460       0.11597582