109
Lattice="12.51515363 0.0 0.0 0.0 12.51515363 0.0 0.0 0.0 25.30973" Properties=species:S:1:pos:R:3:move_mask:L:1:forces:R:3 energy=-453.50104031 stress="0.008224087862061507 -1.3799870571672744e-05 0.00015512563769398875 -1.3799870571672744e-05 0.00891279215076161 0.0001602414032678912 0.00015512563769398875 0.0001602414032678912 0.0028598581021061923" free_energy=-453.50386684 pbc="T T T"
Cu       1.25151999       1.25151999      10.00000011  F      -0.00590010      -0.01623172      -0.06873856
Cu       3.75454997       1.25151999      10.00000011  F       0.01058199       0.00958044      -0.06285542
Cu       6.25757994       1.25151999      10.00000011  F      -0.00086145       0.02844828      -0.05023115
Cu       8.76061004       1.25151999      10.00000011  F      -0.00812404       0.01044151      -0.05356407
Cu      11.26364002       1.25151999      10.00000011  F       0.00085282      -0.00580536      -0.07017285
Cu       1.25151999       3.75454997      10.00000011  F      -0.00340772       0.00966132      -0.06677575
Cu       3.75454997       3.75454997      10.00000011  F       0.01892461      -0.00906915      -0.05788487
Cu       6.25757994       3.75454997      10.00000011  F      -0.01313434      -0.02558775      -0.07877140
Cu       8.76061004       3.75454997      10.00000011  F       0.00761716      -0.01209570      -0.08479761
Cu      11.26364002       3.75454997      10.00000011  F      -0.00936365       0.00790938      -0.04895303
Cu       1.25151999       6.25757994      10.00000011  F       0.00456247       0.00034093      -0.08177516
Cu       3.75454997       6.25757994      10.00000011  F       0.00941473       0.01263498      -0.04641066
Cu       6.25757994       6.25757994      10.00000011  F      -0.01021141       0.01992477      -0.08342602
Cu       8.76061004       6.25757994      10.00000011  F       0.01455122       0.01668573      -0.07017140
Cu      11.26364002       6.25757994      10.00000011  F      -0.01639674       0.00183600      -0.06193143
Cu       1.25151999       8.76061004      10.00000011  F       0.00356180      -0.00206732      -0.06627793
Cu       3.75454997       8.76061004      10.00000011  F      -0.00378981      -0.01727965      -0.07633965
Cu       6.25757994       8.76061004      10.00000011  F      -0.00118354      -0.02169537      -0.03971968
Cu       8.76061004       8.76061004      10.00000011  F       0.00509219      -0.01893749      -0.06166708
Cu      11.26364002       8.76061004      10.00000011  F      -0.00604622      -0.00795532      -0.06800435
Cu       1.25151999      11.26364002      10.00000011  F      -0.00184704       0.00536352      -0.01152916
Cu       3.75454997      11.26364002      10.00000011  F       0.00334067       0.00370233      -0.06603341
Cu       6.25757994      11.26364002      10.00000011  F      -0.00313845      -0.00036886      -0.06388812
Cu       8.76061004      11.26364002      10.00000011  F      -0.01237468       0.00435145      -0.06862704
Cu      11.26364002      11.26364002      10.00000011  F       0.01171047       0.00531338      -0.05873618
Cu       0.00000000       0.00000000      11.76991004  F      -0.00143948       0.04155785       0.15868914
Cu       2.50302998       0.00000000      11.76991004  F       0.06917339       0.02352786       0.13991616
Cu       5.00605995       0.00000000      11.76991004  F       0.01904825       0.09683832       0.12761756
Cu       7.50909005       0.00000000      11.76991004  F       0.04982878       0.07412860       0.11151442
Cu      10.01212003       0.00000000      11.76991004  F      -0.02393038       0.07195735       0.14589467
Cu       0.00000000       2.50302998      11.76991004  F      -0.09423913      -0.01034347       0.09838626
Cu       2.50302998       2.50302998      11.76991004  F       0.09720902      -0.01232819       0.15957082
Cu       5.00605995       2.50302998      11.76991004  F      -0.05719558       0.00143491       0.10780887
Cu       7.50909005       2.50302998      11.76991004  F       0.02519180       0.01120864       0.06665739
Cu      10.01212003       2.50302998      11.76991004  F       0.05478826      -0.11413661       0.06271902
Cu       0.00000000       5.00605995      11.76991004  F      -0.12041419      -0.01712747       0.07170944
Cu       2.50302998       5.00605995      11.76991004  F       0.02883578       0.01876878       0.11317596
Cu       5.00605995       5.00605995      11.76991004  F      -0.03143834       0.03501036       0.25343013
Cu       7.50909005       5.00605995      11.76991004  F      -0.07291789       0.04318129       0.13662722
Cu      10.01212003       5.00605995      11.76991004  F       0.06921498       0.02960657       0.01997504
Cu       0.00000000       7.50909005      11.76991004  F      -0.08887671       0.01583376       0.11634922
Cu       2.50302998       7.50909005      11.76991004  F       0.06216320      -0.03982624       0.11168821
Cu       5.00605995       7.50909005      11.76991004  F      -0.00747107       0.01412804       0.13776346
Cu       7.50909005       7.50909005      11.76991004  F      -0.02924688       0.01375285       0.12254030
Cu      10.01212003       7.50909005      11.76991004  F       0.09003175       0.05742741       0.03322443
Cu       0.00000000      10.01212003      11.76991004  F       0.00377228      -0.04230168       0.16497894
Cu       2.50302998      10.01212003      11.76991004  F       0.07357124       0.01305704       0.18268177
Cu       5.00605995      10.01212003      11.76991004  F       0.01243269      -0.08384170       0.10439494
Cu       7.50909005      10.01212003      11.76991004  F       0.04929536      -0.05217102       0.09562890
Cu      10.01212003      10.01212003      11.76991004  F      -0.02536239      -0.01411960       0.15668137
Cu       1.27729695       1.24056335      13.59286992  T      -0.00784061      -0.00855372      -0.00046420
Cu       3.80473048       1.25666460      13.62479789  T       0.00095719      -0.00041532      -0.00940967
Cu       6.29660169       1.29375476      13.59230450  T       0.00080726      -0.00669311      -0.01837006
Cu       8.76998139       1.27553595      13.63121568  T      -0.00625224      -0.00830030      -0.00555600
Cu      11.26856023       1.26676032      13.61988502  T       0.01098005      -0.00972386      -0.01235830
Cu       1.22519036       3.74420144      13.56523903  T       0.00042700       0.00568320      -0.01394186
Cu       3.76098401       3.78046585      13.61483218  T      -0.01545293       0.00287784      -0.00944726
Cu       6.25393140       3.79692991      13.59306278  T      -0.00738038       0.00349630      -0.02383572
Cu       8.75083433       3.77459424      13.54462755  T      -0.00633011      -0.00439922      -0.04711417
Cu      11.21617305       3.75546670      13.61244193  T       0.00933463       0.00833181      -0.01427330
Cu       1.22881262       6.26107968      13.56432003  T      -0.00405443       0.00380704      -0.01910852
Cu       3.77067599       6.24230157      13.62292674  T      -0.01417762      -0.00887494      -0.02713669
Cu       6.25277062       6.24064356      13.60774166  T      -0.00683129      -0.01264454      -0.03687074
Cu       8.73961362       6.25056457      13.55890983  T       0.00151329      -0.00066147      -0.05113217
Cu      11.21465621       6.25272006      13.61221186  T       0.00605306       0.00193589      -0.02198682
Cu       1.27836612       8.76305801      13.59525232  T      -0.00587263       0.02206567      -0.00493681
Cu       3.78647575       8.74335765      13.60788947  T      -0.01267213       0.00803715      -0.01473563
Cu       6.29205894       8.73880251      13.61488913  T       0.00892330       0.00486311       0.00021141
Cu       8.78525326       8.73966781      13.60734101  T       0.00025240      -0.00101158       0.00546524
Cu      11.27512755       8.74751269      13.61664917  T       0.00602268       0.01389514      -0.02117576
Cu       1.25596312      11.26254644      13.61145055  T      -0.02280572      -0.01042219      -0.01771878
Cu       3.76089941      11.28146348      13.60433674  T      -0.00987397      -0.00700794       0.00312433
Cu       6.25571994      11.27609535      13.56348608  T      -0.00772376       0.00338454      -0.02747448
Cu       8.75130052      11.28367015      13.59624699  T      -0.02229142       0.00204456      -0.00489232
Cu      11.27076815      11.26770594      13.58865357  T       0.02365749      -0.01248582       0.00033674
Cu       0.00491170       0.00177089      15.40110156  T      -0.00497043       0.01775247      -0.09043420
Cu       2.51916226       0.00344142      15.40514175  T       0.02790795       0.01651196      -0.06743236
Cu       5.02261737      12.50750825      15.47955463  T      -0.03625244      -0.02240880      -0.05711864
Cu       7.51109973       0.00634794      15.44807009  T       0.04634930      -0.02277161      -0.05199741
Cu      10.01797261      12.50460561      15.38516149  T      -0.02613299       0.00136404      -0.04940599
Cu       0.07510807       2.50794367      15.37995401  T       0.00523350      -0.00056638      -0.04408429
Cu       2.53961164       2.51687874      15.37570350  T       0.01844761       0.00346724      -0.04060245
Cu       5.00425689       2.48177449      15.41585991  T      -0.06162950      -0.04529156      -0.07034313
Cu       7.62766913       2.57790489      15.42293803  T       0.03288713      -0.09215340      -0.13298609
Cu      10.12403253       2.47575583      15.49461493  T       0.05143373      -0.05426254      -0.08028691
Cu      12.38284380       5.00267685      15.36640597  T      -0.00890733       0.00189391      -0.05401229
Cu       2.24874308       5.00359747      15.38424047  T       0.00901806      -0.00390799      -0.03333751
Pd       4.66211124       5.04280857      15.85389845  T      -0.09390786       0.02576933      -0.02661739
Y        7.48587482       5.04931007      17.29810657  T      -0.10465116       0.00338842       0.10047067
Cu       9.89900494       5.00866148      15.46212129  T       0.10906225      -0.00050281      -0.14868129
Cu       0.08712725       7.49959380      15.38145032  T       0.01143930      -0.01692230      -0.05195767
Cu       2.55657906       7.48047277      15.38462518  T       0.00874225      -0.01896434      -0.03146144
Cu       5.02368304       7.58961292      15.46837735  T      -0.05373612       0.04276732      -0.08630714
Cu       7.62395613       7.50908329      15.45329579  T       0.05123679       0.08008307      -0.12053349
Cu      10.13640101       7.55727051      15.48185630  T       0.03972491       0.05188492      -0.07490634
Cu      12.51263158      10.00253917      15.39821650  T       0.00120005      -0.00466913      -0.08062587
Cu       2.50666688       9.99751584      15.40017092  T       0.01401887      -0.00760637      -0.07834866
Cu       4.99824549      10.04262358      15.34947097  T       0.00121637       0.00153840      -0.04946922
Cu       7.52094954      10.02907581      15.34592483  T       0.00721774      -0.01930377      -0.07114327
Cu      10.01756562      10.03439587      15.37648481  T      -0.01836852       0.00468088      -0.05308418
O        6.25561118       3.50624519      16.44808182  T      -0.02721177      -0.05091014       0.03801608
O        6.27792082       6.70009162      16.58836732  T      -0.06525158      -0.00109136       0.04184141
O        9.03792795       6.44214192      16.58355772  T       0.04988342       0.11290706       0.09637740
O        9.00829607       3.59036029      16.59654540  T       0.06692448      -0.10735112       0.11236171
C        4.34380558       5.00945256      17.80579065  T      -0.40342676       0.00377033       0.06454945
O        5.29620439       5.00150744      18.58088797  T       0.04683626       0.00127488       0.15416456
H        3.29935794       4.98943557      18.21604062  T       0.26373698       0.01301571      -0.07568224
C        6.28423810       0.31611814      16.97009171  T      -0.03733749      -0.13221989      -0.53525262
O        6.31818858       0.54568823      18.11360935  T       0.01344223       0.05528135       0.60879072
109
Lattice="12.51515363 0.0 0.0 0.0 12.51515363 0.0 0.0 0.0 25.30973" Properties=species:S:1:pos:R:3:move_mask:L:1:forces:R:3 energy=-453.50617254 stress="0.00813626403653986 -1.4012961934739526e-05 0.00020884369154814222 -1.4012961934739526e-05 0.008826971706114663 0.0002153076418177628 0.00020884369154814222 0.0002153076418177628 0.00306908533439012" free_energy=-453.50899498 pbc="T T T"
Cu       1.25151999       1.25151999      10.00000011  F      -0.00619012      -0.01660450      -0.06870153
Cu       3.75454997       1.25151999      10.00000011  F       0.01002877       0.00941943      -0.06309818
Cu       6.25757994       1.25151999      10.00000011  F      -0.00117838       0.02833327      -0.05069373
Cu       8.76061004       1.25151999      10.00000011  F      -0.00775649       0.01010128      -0.05383493
Cu      11.26364002       1.25151999      10.00000011  F       0.00095829      -0.00632594      -0.07080972
Cu       1.25151999       3.75454997      10.00000011  F      -0.00355181       0.00945552      -0.06685768
Cu       3.75454997       3.75454997      10.00000011  F       0.01840928      -0.00927508      -0.05808996
Cu       6.25757994       3.75454997      10.00000011  F      -0.01343662      -0.02575277      -0.07925250
Cu       8.76061004       3.75454997      10.00000011  F       0.00783460      -0.01224451      -0.08528598
Cu      11.26364002       3.75454997      10.00000011  F      -0.00927212       0.00767896      -0.04916463
Cu       1.25151999       6.25757994      10.00000011  F       0.00420647       0.00067251      -0.08172207
Cu       3.75454997       6.25757994      10.00000011  F       0.00883222       0.01273546      -0.04673709
Cu       6.25757994       6.25757994      10.00000011  F      -0.01046420       0.02004837      -0.08396531
Cu       8.76061004       6.25757994      10.00000011  F       0.01477812       0.01679004      -0.07071404
Cu      11.26364002       6.25757994      10.00000011  F      -0.01609769       0.00214390      -0.06196309
Cu       1.25151999       8.76061004      10.00000011  F       0.00316326      -0.00170342      -0.06630424
Cu       3.75454997       8.76061004      10.00000011  F      -0.00448895      -0.01688064      -0.07672839
Cu       6.25757994       8.76061004      10.00000011  F      -0.00140804      -0.02140915      -0.04027631
Cu       8.76061004       8.76061004      10.00000011  F       0.00558098      -0.01832196      -0.06207349
Cu      11.26364002       8.76061004      10.00000011  F      -0.00588814      -0.00733300      -0.06871759
Cu       1.25151999      11.26364002      10.00000011  F      -0.00219516       0.00543304      -0.01162300
Cu       3.75454997      11.26364002      10.00000011  F       0.00263350       0.00377467      -0.06655955
Cu       6.25757994      11.26364002      10.00000011  F      -0.00345319      -0.00030402      -0.06455541
Cu       8.76061004      11.26364002      10.00000011  F      -0.01168930       0.00433469      -0.06920673
Cu      11.26364002      11.26364002      10.00000011  F       0.01173865       0.00533450      -0.06011782
Cu       0.00000000       0.00000000      11.76991004  F      -0.00147292       0.04147004       0.15657105
Cu       2.50302998       0.00000000      11.76991004  F       0.06827618       0.02345992       0.13868238
Cu       5.00605995       0.00000000      11.76991004  F       0.01781080       0.09685616       0.12680081
Cu       7.50909005       0.00000000      11.76991004  F       0.05031623       0.07397393       0.11019859
Cu      10.01212003       0.00000000      11.76991004  F      -0.02322066       0.07144632       0.14478068
Cu       0.00000000       2.50302998      11.76991004  F      -0.09397644      -0.01084497       0.09713505
Cu       2.50302998       2.50302998      11.76991004  F       0.09639838      -0.01251663       0.15857045
Cu       5.00605995       2.50302998      11.76991004  F      -0.05803912       0.00143653       0.10692518
Cu       7.50909005       2.50302998      11.76991004  F       0.02487589       0.01089201       0.06507381
Cu      10.01212003       2.50302998      11.76991004  F       0.05567921      -0.11479284       0.06114103
Cu       0.00000000       5.00605995      11.76991004  F      -0.12024081      -0.01708964       0.06986769
Cu       2.50302998       5.00605995      11.76991004  F       0.02825287       0.01852549       0.11197180
Cu       5.00605995       5.00605995      11.76991004  F      -0.03244096       0.03468006       0.25204678
Cu       7.50909005       5.00605995      11.76991004  F      -0.07359831       0.04305941       0.13417780
Cu      10.01212003       5.00605995      11.76991004  F       0.07011330       0.02943592       0.01777071
Cu       0.00000000       7.50909005      11.76991004  F      -0.08861465       0.01626716       0.11460128
Cu       2.50302998       7.50909005      11.76991004  F       0.06139629      -0.03924114       0.11052088
Cu       5.00605995       7.50909005      11.76991004  F      -0.00808161       0.01457358       0.13663076
Cu       7.50909005       7.50909005      11.76991004  F      -0.02959816       0.01442461       0.12077465
Cu      10.01212003       7.50909005      11.76991004  F       0.09056829       0.05856725       0.03138837
Cu       0.00000000      10.01212003      11.76991004  F       0.00365090      -0.04184677       0.16251959
Cu       2.50302998      10.01212003      11.76991004  F       0.07266111       0.01321307       0.18060854
Cu       5.00605995      10.01212003      11.76991004  F       0.01166669      -0.08390318       0.10293050
Cu       7.50909005      10.01212003      11.76991004  F       0.04968192      -0.05210531       0.09398453
Cu      10.01212003      10.01212003      11.76991004  F      -0.02491135      -0.01383741       0.15505403
Cu       1.27722124       1.24048088      13.59286536  T      -0.00637559      -0.00709687      -0.00255250
Cu       3.80473974       1.25666059      13.62470728  T      -0.00063848      -0.00090258      -0.01353297
Cu       6.29660945       1.29369018      13.59212733  T      -0.00017906      -0.00577621      -0.02174006
Cu       8.76992107       1.27545585      13.63116202  T      -0.00375624      -0.00899222      -0.01072814
Cu      11.26866623       1.26666646      13.61976581  T       0.01018458      -0.00946757      -0.01529424
Cu       1.22519449       3.74425625      13.56510464  T       0.00044528       0.00518598      -0.01425042
Cu       3.76083495       3.78049363      13.61474107  T      -0.01444191       0.00252586      -0.01036285
Cu       6.25386019       3.79696357      13.59283296  T      -0.00838600       0.00253334      -0.01984496
Cu       8.75077326       3.77455181      13.54417298  T      -0.00559862      -0.00426842      -0.04323898
Cu      11.21626315       3.75554705      13.61230425  T       0.00947058       0.00637691      -0.01658629
Cu       1.22877345       6.26111648      13.56413578  T      -0.00343053       0.00346087      -0.01922047
Cu       3.77053920       6.24221597      13.62266504  T      -0.01366233      -0.00807828      -0.02759280
Cu       6.25270467       6.24052154      13.60738581  T      -0.00740463      -0.01153793      -0.03351513
Cu       8.73962826       6.25055819      13.55841654  T       0.00175403      -0.00103814      -0.04766550
Cu      11.21471453       6.25273871      13.61199952  T       0.00670135       0.00334671      -0.02377667
Cu       1.27830943       8.76327089      13.59520474  T      -0.00535392       0.01910203      -0.00684535
Cu       3.78635348       8.74343512      13.60774723  T      -0.01258780       0.00725479      -0.01664808
Cu       6.29214505       8.73884945      13.61489115  T       0.00694790       0.00423691      -0.00286312
Cu       8.78525564       8.73965805      13.60739365  T       0.00203751       0.00010168       0.00005001
Cu      11.27518562       8.74764685      13.61644466  T       0.00621074       0.01298764      -0.02332435
Cu       1.25574298      11.26244582      13.61127945  T      -0.02000397      -0.00878102      -0.01898879
Cu       3.76080404      11.28139589      13.60436686  T      -0.01042981      -0.00598219      -0.00090231
Cu       6.25564535      11.27612801      13.56322083  T      -0.00819036       0.00245140      -0.03011172
Cu       8.75108539      11.28368992      13.59619992  T      -0.01946721       0.00184387      -0.00870029
Cu      11.27099643      11.26758542      13.58865661  T       0.02016362      -0.01112221      -0.00220923
Cu       0.00486376       0.00194223      15.40022913  T      -0.00438198       0.01664051      -0.08590877
Cu       2.51943158       0.00360073      15.40449104  T       0.02402176       0.01534357      -0.06483490
Cu       5.02226757      12.50729211      15.47900364  T      -0.03670226      -0.02192672      -0.04863099
Cu       7.51154690       0.00612817      15.44756845  T       0.04495591      -0.02291851      -0.04276527
Cu      10.01772043      12.50461875      15.38468491  T      -0.02256925      -0.00016986      -0.04795468
Cu       0.07515850       2.50793817      15.37952855  T       0.00682090       0.00024137      -0.04280134
Cu       2.53978961       2.51691216      15.37531170  T       0.01453684       0.00448461      -0.03930522
Cu       5.00366230       2.48133758      15.41518111  T      -0.04871775      -0.03781982      -0.05582863
Cu       7.62798651       2.57701581      15.42165508  T       0.02433535      -0.07763317      -0.10828870
Cu      10.12452876       2.47523232      15.49384046  T       0.04196770      -0.04312735      -0.06878733
Cu      12.38275782       5.00269513      15.36588484  T      -0.00424160       0.00167377      -0.05206802
Cu       2.24883006       5.00355980      15.38391878  T       0.00472196      -0.00385885      -0.03276688
Pd       4.66120514       5.04305712      15.85364181  T      -0.07995648       0.01909314      -0.00261178
Y        7.48486509       5.04934273      17.29907593  T      -0.09506734      -0.00303240       0.09418259
Cu       9.90005721       5.00865672      15.46068674  T       0.08817868      -0.00078722      -0.12433608
Cu       0.08723763       7.49943048      15.38094919  T       0.01181845      -0.01590316      -0.05064786
Cu       2.55666342       7.48028980      15.38432171  T       0.00654125      -0.01869877      -0.03051406
Cu       5.02316454       7.59002555      15.46754466  T      -0.04339905       0.03412766      -0.07617261
Cu       7.62445048       7.50985598      15.45213281  T       0.04054581       0.06346273      -0.09959495
Cu      10.13678422       7.55777112      15.48113345  T       0.03287120       0.04251152      -0.06478983
Cu      12.51264322      10.00249412      15.39743848  T       0.00100724      -0.00464240      -0.07673231
Cu       2.50680217       9.99744250      15.39941492  T       0.01225547      -0.00731926      -0.07482654
Cu       4.99825725      10.04263835      15.34899363  T       0.00079568       0.00182307      -0.04667298
Cu       7.52101912      10.02888946      15.34523843  T       0.00607188      -0.01634629      -0.06637206
Cu      10.01738840      10.03444105      15.37597279  T      -0.01617321       0.00579865      -0.05124006
O        6.25534862       3.50575397      16.44844856  T      -0.02598728      -0.05072402       0.02002593
O        6.27729131       6.70008111      16.58877101  T      -0.06195889       0.00703719       0.02394020
O        9.03840928       6.44323123      16.58448759  T       0.05145160       0.10554120       0.08139288
O        9.00894173       3.58932454      16.59762942  T       0.07035344      -0.10034637       0.09251479
C        4.33991311       5.00948898      17.80641327  T      -0.03971081       0.00422398       0.13055273
O        5.29665619       5.00151983      18.58237542  T      -0.15515934       0.00354848      -0.00016696
H        3.30190264       4.98956122      18.21531043  T       0.11353067       0.00979370      -0.00716201
C        6.28387791       0.31484234      16.96492726  T      -0.00901207       0.06928094       0.45138907
O        6.31831836       0.54622163      18.11948324  T      -0.01600059      -0.14394050      -0.38544614
109
Lattice="12.51515363 0.0 0.0 0.0 12.51515363 0.0 0.0 0.0 25.30973" Properties=species:S:1:pos:R:3:move_mask:L:1:forces:R:3 energy=-453.50513251999996 stress="0.008122226645338402 -1.5097055896323312e-05 0.00019203531995515687 -1.5097055896323312e-05 0.008829199868699022 0.00019542068329749028 0.00019203531995515687 0.00019542068329749028 0.002953265113578669" free_energy=-453.50795514 pbc="T T T"
Cu       1.25151999       1.25151999      10.00000011  F      -0.00624364      -0.01634552      -0.06931554
Cu       3.75454997       1.25151999      10.00000011  F       0.01022660       0.00955919      -0.06340771
Cu       6.25757994       1.25151999      10.00000011  F      -0.00123452       0.02846246      -0.05072247
Cu       8.76061004       1.25151999      10.00000011  F      -0.00810410       0.01032599      -0.05396760
Cu      11.26364002       1.25151999      10.00000011  F       0.00063817      -0.00608419      -0.07137100
Cu       1.25151999       3.75454997      10.00000011  F      -0.00367381       0.00974997      -0.06721007
Cu       3.75454997       3.75454997      10.00000011  F       0.01854596      -0.00899341      -0.05832624
Cu       6.25757994       3.75454997      10.00000011  F      -0.01346195      -0.02549806      -0.07928221
Cu       8.76061004       3.75454997      10.00000011  F       0.00749862      -0.01196501      -0.08526261
Cu      11.26364002       3.75454997      10.00000011  F      -0.00954552       0.00795674      -0.04938066
Cu       1.25151999       6.25757994      10.00000011  F       0.00419389       0.00054505      -0.08195982
Cu       3.75454997       6.25757994      10.00000011  F       0.00891673       0.01267436      -0.04677434
Cu       6.25757994       6.25757994      10.00000011  F      -0.01049284       0.01996872      -0.08379486
Cu       8.76061004       6.25757994      10.00000011  F       0.01448083       0.01673987      -0.07049693
Cu      11.26364002       6.25757994      10.00000011  F      -0.01647665       0.00206259      -0.06210183
Cu       1.25151999       8.76061004      10.00000011  F       0.00309197      -0.00198149      -0.06658831
Cu       3.75454997       8.76061004      10.00000011  F      -0.00425408      -0.01715226      -0.07672080
Cu       6.25757994       8.76061004      10.00000011  F      -0.00149413      -0.02160043      -0.04002319
Cu       8.76061004       8.76061004      10.00000011  F       0.00519792      -0.01871280      -0.06181869
Cu      11.26364002       8.76061004      10.00000011  F      -0.00619874      -0.00766526      -0.06888457
Cu       1.25151999      11.26364002      10.00000011  F      -0.00228918       0.00527979      -0.01220286
Cu       3.75454997      11.26364002      10.00000011  F       0.00289822       0.00364391      -0.06690128
Cu       6.25757994      11.26364002      10.00000011  F      -0.00358624      -0.00044609      -0.06454258
Cu       8.76061004      11.26364002      10.00000011  F      -0.01206913       0.00424299      -0.06920875
Cu      11.26364002      11.26364002      10.00000011  F       0.01146446       0.00518651      -0.06056257
Cu       0.00000000       0.00000000      11.76991004  F      -0.00179873       0.04150781       0.15656292
Cu       2.50302998       0.00000000      11.76991004  F       0.06872635       0.02339555       0.13888880
Cu       5.00605995       0.00000000      11.76991004  F       0.01792580       0.09683420       0.12602640
Cu       7.50909005       0.00000000      11.76991004  F       0.04992209       0.07396749       0.10928470
Cu      10.01212003       0.00000000      11.76991004  F      -0.02386931       0.07120717       0.14504621
Cu       0.00000000       2.50302998      11.76991004  F      -0.09418709      -0.01027470       0.09720365
Cu       2.50302998       2.50302998      11.76991004  F       0.09660449      -0.01230742       0.15873748
Cu       5.00605995       2.50302998      11.76991004  F      -0.05794012       0.00178294       0.10672076
Cu       7.50909005       2.50302998      11.76991004  F       0.02449878       0.01095870       0.06451557
Cu      10.01212003       2.50302998      11.76991004  F       0.05526208      -0.11463372       0.06113298
Cu       0.00000000       5.00605995      11.76991004  F      -0.12044380      -0.01685145       0.06967116
Cu       2.50302998       5.00605995      11.76991004  F       0.02827019       0.01879200       0.11160392
Cu       5.00605995       5.00605995      11.76991004  F      -0.03247643       0.03471725       0.25139399
Cu       7.50909005       5.00605995      11.76991004  F      -0.07412479       0.04318856       0.13327532
Cu      10.01212003       5.00605995      11.76991004  F       0.06998069       0.02965373       0.01707976
Cu       0.00000000       7.50909005      11.76991004  F      -0.08877345       0.01608104       0.11454359
Cu       2.50302998       7.50909005      11.76991004  F       0.06132606      -0.03943795       0.11031961
Cu       5.00605995       7.50909005      11.76991004  F      -0.00797182       0.01456935       0.13653568
Cu       7.50909005       7.50909005      11.76991004  F      -0.02991581       0.01455340       0.12036132
Cu      10.01212003       7.50909005      11.76991004  F       0.09027333       0.05847246       0.03105250
Cu       0.00000000      10.01212003      11.76991004  F       0.00333613      -0.04250659       0.16194380
Cu       2.50302998      10.01212003      11.76991004  F       0.07313349       0.01300744       0.18058154
Cu       5.00605995      10.01212003      11.76991004  F       0.01177843      -0.08428889       0.10264398