109
Lattice="12.51515363 0.0 0.0 0.0 12.51515363 0.0 0.0 0.0 25.30973" Properties=species:S:1:pos:R:3:move_mask:L:1:forces:R:3 energy=-453.42995834 stress="0.007985123227932201 9.19102788595628e-06 -0.00024076693230449617 9.19102788595628e-06 0.00904216635789272 -1.1621402882974836e-05 -0.00024076693230449617 -1.1621402882974836e-05 0.0028557307856080286" free_energy=-453.43168802 pbc="T T T"
Cu       1.25151999       1.25151999      10.00000011  F       0.00185448      -0.00853508      -0.07816495
Cu       3.75454997       1.25151999      10.00000011  F       0.01028346       0.00016840      -0.06627038
Cu       6.25757994       1.25151999      10.00000011  F      -0.00105041       0.02443847      -0.05881914
Cu       8.76061004       1.25151999      10.00000011  F      -0.00962608       0.00683232      -0.05357224
Cu      11.26364002       1.25151999      10.00000011  F      -0.00405301      -0.00198666      -0.07229926
Cu       1.25151999       3.75454997      10.00000011  F       0.00271565       0.01195244      -0.06706168
Cu       3.75454997       3.75454997      10.00000011  F       0.01436320      -0.01046982      -0.05753285
Cu       6.25757994       3.75454997      10.00000011  F      -0.01360230      -0.02630410      -0.08534796
Cu       8.76061004       3.75454997      10.00000011  F       0.01007917      -0.02111389      -0.07795523
Cu      11.26364002       3.75454997      10.00000011  F      -0.00936006       0.00623990      -0.05016117
Cu       1.25151999       6.25757994      10.00000011  F       0.00243861      -0.01035983      -0.06866991
Cu       3.75454997       6.25757994      10.00000011  F       0.01555747       0.01132552      -0.05819499
Cu       6.25757994       6.25757994      10.00000011  F      -0.01353001       0.02843935      -0.08834769
Cu       8.76061004       6.25757994      10.00000011  F       0.00856653       0.02191652      -0.07864626
Cu      11.26364002       6.25757994      10.00000011  F      -0.00883534      -0.00475944      -0.05190354
Cu       1.25151999       8.76061004      10.00000011  F       0.00223429       0.00493394      -0.07698013
Cu       3.75454997       8.76061004      10.00000011  F       0.00941957      -0.00270053      -0.06547775
Cu       6.25757994       8.76061004      10.00000011  F      -0.00109555      -0.02888982      -0.05677241
Cu       8.76061004       8.76061004      10.00000011  F      -0.00873170      -0.00941596      -0.05253540
Cu      11.26364002       8.76061004      10.00000011  F      -0.00439294      -0.00134509      -0.07099162
Cu       1.25151999      11.26364002      10.00000011  F       0.00381689       0.00187311      -0.01030252
Cu       3.75454997      11.26364002      10.00000011  F      -0.00254567       0.00158566      -0.07428296
Cu       6.25757994      11.26364002      10.00000011  F      -0.00588050       0.00216800      -0.07883317
Cu       8.76061004      11.26364002      10.00000011  F      -0.00835830       0.00170916      -0.06846933
Cu      11.26364002      11.26364002      10.00000011  F       0.01013441       0.00174880      -0.06047726
Cu       0.00000000       0.00000000      11.76991004  F      -0.00410298       0.04506253       0.14990939
Cu       2.50302998       0.00000000      11.76991004  F       0.04800714       0.02053055       0.12350748
Cu       5.00605995       0.00000000      11.76991004  F       0.04112102       0.11369349       0.13703270
Cu       7.50909005       0.00000000      11.76991004  F       0.00696213       0.07168025       0.12101801
Cu      10.01212003       0.00000000      11.76991004  F      -0.00856942       0.06899233       0.11942263
Cu       0.00000000       2.50302998      11.76991004  F      -0.09712073       0.02004131       0.09595658
Cu       2.50302998       2.50302998      11.76991004  F       0.01763073       0.06777131       0.16323641
Cu       5.00605995       2.50302998      11.76991004  F      -0.01403187      -0.02139013       0.14573780
Cu       7.50909005       2.50302998      11.76991004  F      -0.05448326      -0.02808230       0.11117384
Cu      10.01212003       2.50302998      11.76991004  F       0.08736101      -0.05864497       0.05769924
Cu       0.00000000       5.00605995      11.76991004  F      -0.14808896       0.00235778       0.06135902
Cu       2.50302998       5.00605995      11.76991004  F      -0.00154470       0.00164808       0.12986053
Cu       5.00605995       5.00605995      11.76991004  F      -0.04463272       0.00135341       0.27140168
Cu       7.50909005       5.00605995      11.76991004  F      -0.09642716       0.00126869       0.14812026
Cu      10.01212003       5.00605995      11.76991004  F       0.05538660       0.00162295       0.04865230
Cu       0.00000000       7.50909005      11.76991004  F      -0.09883618      -0.02257675       0.09765514
Cu       2.50302998       7.50909005      11.76991004  F       0.01586184      -0.06981303       0.16400555
Cu       5.00605995       7.50909005      11.76991004  F      -0.01492160       0.01741869       0.14672461
Cu       7.50909005       7.50909005      11.76991004  F      -0.05614096       0.02435367       0.11164339
Cu      10.01212003       7.50909005      11.76991004  F       0.08647214       0.05712364       0.05881652
Cu       0.00000000      10.01212003      11.76991004  F      -0.00466112      -0.04288339       0.14728277
Cu       2.50302998      10.01212003      11.76991004  F       0.04849930      -0.02021288       0.12306208
Cu       5.00605995      10.01212003      11.76991004  F       0.04027727      -0.11406059       0.13521800
Cu       7.50909005      10.01212003      11.76991004  F       0.00674163      -0.07249772       0.11985527
Cu      10.01212003      10.01212003      11.76991004  F      -0.01070841      -0.06873875       0.11953826
Cu       1.26846388       1.24819885      13.58823520  T      -0.00055467      -0.01325335       0.00643328
Cu       3.78303997       1.26834549      13.61107647  T      -0.00667834      -0.00997612      -0.01665197
Cu       6.28655215       1.28385039      13.62159722  T       0.00501584      -0.01228494      -0.01697271
Cu       8.77045572       1.27467203      13.61565627  T      -0.00276141      -0.01075713      -0.00805724
Cu      11.26418518       1.26992766      13.61413414  T       0.00657308      -0.00874762      -0.01279937
Cu       1.19973517       3.76034899      13.58181336  T      -0.01374497      -0.00583086      -0.00987270
Cu       3.75467737       3.77424044      13.61901208  T      -0.00150897       0.00618289      -0.00538322
Cu       6.24264311       3.78151524      13.60388041  T      -0.01021570       0.01776393      -0.03016500
Cu       8.73358332       3.76063571      13.54909370  T      -0.00124867       0.00847147      -0.04432924
Cu      11.21633687       3.77182839      13.62869989  T       0.00517489       0.00024330      -0.01333929
Cu       1.19893733       6.25226889      13.58183361  T      -0.01387143       0.00573414      -0.00711025
Cu       3.75374374       6.23760701      13.61933630  T      -0.00107798      -0.00963844      -0.00528160
Cu       6.24175779       6.22970369      13.60337953  T      -0.01045412      -0.01976917      -0.02829610
Cu       8.73284643       6.25132887      13.54909902  T       0.00027387      -0.00939586      -0.04557842
Cu      11.21544254       6.24097384      13.62886845  T       0.00456403      -0.00332668      -0.01351623
Cu       1.26790321       8.76412442      13.58839769  T      -0.00030276       0.01092041       0.00550017
Cu       3.78239393       8.74336128      13.61115746  T      -0.00623840       0.01166525      -0.01493925
Cu       6.28585668       8.72698808      13.62194422  T       0.00564228       0.01541859      -0.01695733
Cu       8.76955813       8.73689158      13.61619410  T      -0.00280868       0.01441965      -0.00732586
Cu      11.26340010       8.74270887      13.61422475  T       0.00580944       0.01120078      -0.01126772
Cu       1.25269479      11.26373526      13.61068847  T      -0.00699762       0.00189992      -0.01246114
Cu       3.74446676      11.26344854      13.58458908  T      -0.01626861       0.00145613      -0.00111480
Cu       6.26003942      11.26302640      13.57394937  T      -0.00390231       0.00206277      -0.01378286
Cu       8.76982908      11.26337933      13.57989463  T      -0.01792178       0.00171703      -0.01112449
Cu      11.27504270      11.26386404      13.58723344  T       0.01483020       0.00146033       0.00714946
Cu       0.00163248       0.00022865      15.40092363  T      -0.00682198       0.00789257      -0.08423648
Cu       2.50961933       0.01461457      15.39700467  T       0.01083931       0.00108187      -0.08049029
Cu       5.00835110      12.48206970      15.36867954  T       0.01360811      -0.00707910      -0.04955663
Cu       7.51754591      12.49345548      15.36408785  T      -0.00758249       0.00111514      -0.05674206
Cu      10.02122555      12.49986074      15.37843087  T      -0.00663412       0.00667795      -0.05460082
Cu       0.05560145       2.48255756      15.37964599  T       0.01380336      -0.00099884      -0.04475570
Cu       2.52099510       2.52966923      15.37453115  T       0.00858273       0.01798435      -0.03979188
Cu       4.98634395       2.43282322      15.45734003  T      -0.03792061      -0.04939017      -0.08549514
Cu       7.58935061       2.51573048      15.45571464  T       0.04659683      -0.09861256      -0.12547773
Cu      10.09429365       2.46837163      15.47244007  T       0.05100467      -0.06878498      -0.08056167
Cu      12.34129725       5.00622427      15.51675589  T       0.00848729       0.00148619      -0.02289091
Cu       2.24500568       5.00654779      15.37510163  T       0.03128491       0.00346479      -0.04989198
Pd       4.64869437       5.00313603      15.86075030  T      -0.05935191      -0.00184296      -0.05797487
Y        7.45119432       5.00417529      17.30029004  T      -0.10528731       0.00121828       0.09289145
Cu       9.81763717       5.00660311      15.43605303  T       0.09887071       0.00451664      -0.15586706
Cu       0.05343695       7.53003278      15.37963030  T       0.01200035       0.00470071      -0.04444965
Cu       2.51907065       7.48329507      15.37514744  T       0.00978188      -0.01693123      -0.04137986
Cu       4.98448395       7.57674822      15.45733573  T      -0.03676991       0.04282498      -0.08307208
Cu       7.58555489       7.49317115      15.45667084  T       0.04472924       0.09564311      -0.12742340
Cu      10.09141228       7.54466575      15.47256155  T       0.05018403       0.06892189      -0.08026853
Cu       0.00179467      10.01235694      15.40099703  T      -0.00683640      -0.00742019      -0.08468968
Cu       2.50972746       9.99814798      15.39703859  T       0.01100099       0.00169997      -0.08042764
Cu       5.00843483      10.04313120      15.36877091  T       0.01577472       0.00270301      -0.04969619
Cu       7.51749685      10.03170749      15.36441586  T      -0.00742591      -0.00896038      -0.05711129
Cu      10.02138337      10.02847758      15.37854882  T      -0.00647798      -0.00945514      -0.05481613
O        6.22959556       3.39419852      16.53583926  T      -0.04216300      -0.01267820       0.04000771
O        6.22415998       6.60911008      16.53460844  T      -0.04189859       0.01138108       0.04318324
O        8.97323887       6.44292048      16.58819471  T       0.08140241       0.10144780       0.10852133
O        8.97702546       3.56991216      16.58839263  T       0.07869320      -0.10478494       0.10723246
C        4.30694945       4.98689975      17.80942133  T      -0.41665874      -0.00293241       0.05332828
O        5.25250385       4.99496865      18.59263700  T       0.06857054       0.00148055       0.16667445
H        3.25856254       4.96458536      18.21122645  T       0.27598295       0.01135333      -0.07043461
C       11.86600963       5.00984628      17.31401247  T       0.22970672      -0.00191343      -0.64022438
O       11.52919669       5.01222479      18.41468555  T      -0.11085577       0.00108441       0.63791200
109
Lattice="12.51515363 0.0 0.0 0.0 12.51515363 0.0 0.0 0.0 25.30973" Properties=species:S:1:pos:R:3:move_mask:L:1:forces:R:3 energy=-453.43378263000005 stress="0.007995841191093731 8.370799964178332e-06 -0.00029149417357419977 8.370799964178332e-06 0.009005827573988278 -9.158646936611198e-06 -0.00029149417357419977 -9.158646936611198e-06 0.003163665687163172" free_energy=-453.43546987 pbc="T T T"
Cu       1.25151999       1.25151999      10.00000011  F       0.00133011      -0.00841668      -0.07838752
Cu       3.75454997       1.25151999      10.00000011  F       0.01010340       0.00028531      -0.06683406
Cu       6.25757994       1.25151999      10.00000011  F      -0.00107178       0.02451885      -0.05949796
Cu       8.76061004       1.25151999      10.00000011  F      -0.00942826       0.00671676      -0.05403453
Cu      11.26364002       1.25151999      10.00000011  F      -0.00416076      -0.00230346      -0.07258790
Cu       1.25151999       3.75454997      10.00000011  F       0.00253776       0.01191524      -0.06735728
Cu       3.75454997       3.75454997      10.00000011  F       0.01397877      -0.01038980      -0.05808321
Cu       6.25757994       3.75454997      10.00000011  F      -0.01363241      -0.02620790      -0.08592887
Cu       8.76061004       3.75454997      10.00000011  F       0.01018012      -0.02113468      -0.07855601
Cu      11.26364002       3.75454997      10.00000011  F      -0.00947645       0.00613408      -0.05050125
Cu       1.25151999       6.25757994      10.00000011  F       0.00225759      -0.01024823      -0.06891392
Cu       3.75454997       6.25757994      10.00000011  F       0.01516110       0.01130675      -0.05869127
Cu       6.25757994       6.25757994      10.00000011  F      -0.01355715       0.02839780      -0.08889395
Cu       8.76061004       6.25757994      10.00000011  F       0.00866958       0.02199294      -0.07922026
Cu      11.26364002       6.25757994      10.00000011  F      -0.00894311      -0.00458223      -0.05220307
Cu       1.25151999       8.76061004      10.00000011  F       0.00170256       0.00479307      -0.07712248
Cu       3.75454997       8.76061004      10.00000011  F       0.00923087      -0.00283444      -0.06596277
Cu       6.25757994       8.76061004      10.00000011  F      -0.00112678      -0.02898227      -0.05739552
Cu       8.76061004       8.76061004      10.00000011  F      -0.00851420      -0.00931991      -0.05293964
Cu      11.26364002       8.76061004      10.00000011  F      -0.00449687      -0.00105148      -0.07121218
Cu       1.25151999      11.26364002      10.00000011  F       0.00293393       0.00183270      -0.01051028
Cu       3.75454997      11.26364002      10.00000011  F      -0.00263221       0.00154287      -0.07460835
Cu       6.25757994      11.26364002      10.00000011  F      -0.00595861       0.00212999      -0.07939271
Cu       8.76061004      11.26364002      10.00000011  F      -0.00785567       0.00167079      -0.06902194
Cu      11.26364002      11.26364002      10.00000011  F       0.01004408       0.00170375      -0.06148510
Cu       0.00000000       0.00000000      11.76991004  F      -0.00452937       0.04483829       0.14792175
Cu       2.50302998       0.00000000      11.76991004  F       0.04723345       0.02072218       0.12204140
Cu       5.00605995       0.00000000      11.76991004  F       0.04059373       0.11374648       0.13573827
Cu       7.50909005       0.00000000      11.76991004  F       0.00735311       0.07167624       0.11939330
Cu      10.01212003       0.00000000      11.76991004  F      -0.00809722       0.06850314       0.11805388
Cu       0.00000000       2.50302998      11.76991004  F      -0.09705034       0.01974274       0.09473255
Cu       2.50302998       2.50302998      11.76991004  F       0.01695063       0.06795054       0.16246054
Cu       5.00605995       2.50302998      11.76991004  F      -0.01435393      -0.02110493       0.14490200
Cu       7.50909005       2.50302998      11.76991004  F      -0.05488359      -0.02813554       0.10987711
Cu      10.01212003       2.50302998      11.76991004  F       0.08778436      -0.05907254       0.05652127
Cu       0.00000000       5.00605995      11.76991004  F      -0.14809882       0.00243960       0.06057158
Cu       2.50302998       5.00605995      11.76991004  F      -0.00193811       0.00171148       0.12914734
Cu       5.00605995       5.00605995      11.76991004  F      -0.04545189       0.00141613       0.26975207
Cu       7.50909005       5.00605995      11.76991004  F      -0.09686401       0.00134472       0.14582557
Cu      10.01212003       5.00605995      11.76991004  F       0.05584070       0.00165667       0.04671481
Cu       0.00000000       7.50909005      11.76991004  F      -0.09879706      -0.02226170       0.09648730
Cu       2.50302998       7.50909005      11.76991004  F       0.01520588      -0.06998952       0.16325837
Cu       5.00605995       7.50909005      11.76991004  F      -0.01523636       0.01715970       0.14598838
Cu       7.50909005       7.50909005      11.76991004  F      -0.05653880       0.02444430       0.11043033
Cu      10.01212003       7.50909005      11.76991004  F       0.08691161       0.05762436       0.05770716
Cu       0.00000000      10.01212003      11.76991004  F      -0.00508437      -0.04275103       0.14532372
Cu       2.50302998      10.01212003      11.76991004  F       0.04771162      -0.02049151       0.12165186
Cu       5.00605995      10.01212003      11.76991004  F       0.03974389      -0.11418008       0.13394955
Cu       7.50909005      10.01212003      11.76991004  F       0.00713843      -0.07255271       0.11826127
Cu      10.01212003      10.01212003      11.76991004  F      -0.01020867      -0.06831428       0.11817936
Cu       1.26845850       1.24807094      13.58829721  T      -0.00068380      -0.01112033       0.00363824
Cu       3.78297551       1.26824925      13.61091575  T      -0.00680066      -0.00903015      -0.01877693
Cu       6.28660058       1.28373175      13.62143346  T       0.00374108      -0.01089056      -0.01903187
Cu       8.77042906       1.27456828      13.61557856  T      -0.00086908      -0.01043986      -0.01218305
Cu      11.26424863       1.26984330      13.61401063  T       0.00667892      -0.00821966      -0.01593330
Cu       1.19960251       3.76029267      13.58171820  T      -0.01217125      -0.00479899      -0.01160814
Cu       3.75466286       3.77430013      13.61896020  T      -0.00186983       0.00542102      -0.00736770
Cu       6.24254449       3.78168658      13.60358935  T      -0.00963686       0.01554424      -0.02672956
Cu       8.73357130       3.76071744      13.54866597  T      -0.00145096       0.00734114      -0.04052059
Cu      11.21638680       3.77183077      13.62857131  T       0.00503690      -0.00078206      -0.01660114
Cu       1.19880354       6.25232421      13.58176502  T      -0.01237144       0.00484134      -0.00910619
Cu       3.75373335       6.23751402      13.61928543  T      -0.00146940      -0.00851821      -0.00727382
Cu       6.24165691       6.22951296      13.60310669  T      -0.00983681      -0.01727801      -0.02503688
Cu       8.73284906       6.25123827      13.54865939  T      -0.00015251      -0.00800968      -0.04180679
Cu      11.21548659       6.24094167      13.62873811  T       0.00454200      -0.00186535      -0.01684304
Cu       1.26790020       8.76422980      13.58845084  T      -0.00049491       0.00905964       0.00279770
Cu       3.78233373       8.74347380      13.61101320  T      -0.00635858       0.01047565      -0.01715721
Cu       6.28591112       8.72713689      13.62178071  T       0.00419478       0.01365942      -0.01911399
Cu       8.76953110       8.73703074      13.61612348  T      -0.00087345       0.01367391      -0.01157477
Cu      11.26345617       8.74281687      13.61411617  T       0.00598670       0.01035699      -0.01457456
Cu       1.25262721      11.26375366      13.61056825  T      -0.00666156       0.00160567      -0.01458810
Cu       3.74430982      11.26346255      13.58457820  T      -0.01480733       0.00123725      -0.00374337
Cu       6.26000175      11.26304630      13.57381650  T      -0.00410968       0.00183595      -0.01537696
Cu       8.76965612      11.26339597      13.57978732  T      -0.01580696       0.00149969      -0.01255242
Cu      11.27518575      11.26387806      13.58730228  T       0.01218968       0.00128633       0.00358354
Cu       0.00156665       0.00030474      15.40011093  T      -0.00644290       0.00721321      -0.07974081
Cu       2.50972396       0.01462496      15.39622817  T       0.00992918       0.00144013      -0.07611435
Cu       5.00848238      12.48200136      15.36820144  T       0.01242213      -0.00728278      -0.04717216
Cu       7.51747283      12.49346625      15.36354040  T      -0.00714876      -0.00098798      -0.05359093
Cu      10.02116147      12.49992507      15.37790418  T      -0.00671552       0.00411012      -0.05231949
Cu       0.05573461       2.48254792      15.37921421  T       0.01335007       0.00104020      -0.04017253
Cu       2.52107795       2.52984282      15.37414720  T       0.00755364       0.01719732      -0.03863436
Cu       4.98597813       2.43234677      15.45651493  T      -0.02755623      -0.03932538      -0.07510941
Cu       7.58980028       2.51477895      15.45450382  T       0.03952732      -0.07871732      -0.10312139
Cu      10.09478587       2.46770796      15.47166281  T       0.03890153      -0.05514109      -0.06628441
Cu      12.34137909       5.00623854      15.51653519  T       0.02197699       0.00137590      -0.05702941
Cu       2.24530754       5.00658121      15.37462024  T       0.02642583       0.00318728      -0.04693773
Pd       4.64812180       5.00311826      15.86019095  T      -0.04798620      -0.00197251      -0.02557115
Y        7.45017847       5.00418706      17.30118626  T      -0.08322486       0.00084623       0.09126136
Cu       9.81859120       5.00664666      15.43454912  T       0.08484668       0.00385916      -0.12107677
Cu       0.05355272       7.53007821      15.37920130  T       0.01160575       0.00244396      -0.03984882
Cu       2.51916501       7.48313162      15.37474805  T       0.00865886      -0.01587060      -0.04016526
Cu       4.98412915       7.57716135      15.45653417  T      -0.02638763       0.03282613      -0.07286154
Cu       7.58598641       7.49409402      15.45544155  T       0.03822312       0.07491618      -0.10462535
Cu      10.09189650       7.54533068      15.47178708  T       0.03885597       0.05607781      -0.06702728
Cu       0.00172872      10.01228535      15.40018003  T      -0.00637657      -0.00665468      -0.08047558
Cu       2.50983359       9.99816438      15.39626259  T       0.01005778       0.00128863      -0.07622818
Cu       5.00858701      10.04315736      15.36829154  T       0.01460714       0.00302422      -0.04743971
Cu       7.51742527      10.03162114      15.36386487  T      -0.00700135      -0.00644316      -0.05395889
Cu      10.02132092      10.02838635      15.37802009  T      -0.00655209      -0.00672003      -0.05244920
O        6.22918869       3.39407612      16.53622523  T      -0.04029266      -0.02252584       0.02091153
O        6.22375574       6.60921984      16.53502504  T      -0.04012998       0.02152919       0.02400059
O        8.97402420       6.44389929      16.58924177  T       0.07772249       0.09981371       0.08360909
O        8.97778475       3.56890106      16.58942729  T       0.07498651      -0.10259274       0.08251920
C        4.30292933       4.98687147      17.80993587  T      -0.03078247       0.00247489       0.13233275
O        5.25316540       4.99498291      18.59424518  T      -0.15060792      -0.00063159      -0.00704217
H        3.26122539       4.96469486      18.21054689  T       0.12163772       0.00810239      -0.00286328
C       11.86822594       5.00982776      17.30783538  T      -0.15588944       0.00087296       0.61352119
O       11.52812714       5.01223530      18.42084037  T       0.26325038      -0.00125186      -0.58836339
109
Lattice="12.51515363 0.0 0.0 0.0 12.51515363 0.0 0.0 0.0 25.30973" Properties=species:S:1:pos:R:3:move_mask:L:1:forces:R:3 energy=-453.43802492000003 stress="0.00798392137541794 8.265767848607969e-06 -0.00025199385308618784 8.265767848607969e-06 0.009028375056913077 -1.1098676493682113e-05 -0.00025199385308618784 -1.1098676493682113e-05 0.0030111427150841122" free_energy=-453.4397364 pbc="T T T"
Cu       1.25151999       1.25151999      10.00000011  F       0.00152885      -0.00816592      -0.07811044
Cu       3.75454997       1.25151999      10.00000011  F       0.01022890       0.00052616      -0.06638768
Cu       6.25757994       1.25151999      10.00000011  F      -0.00117456       0.02474499      -0.05894317
Cu       8.76061004       1.25151999      10.00000011  F      -0.00951663       0.00699635      -0.05359238
Cu      11.26364002       1.25151999      10.00000011  F      -0.00420138      -0.00200148      -0.07240057
Cu       1.25151999       3.75454997      10.00000011  F       0.00256611       0.01217836      -0.06696210
Cu       3.75454997       3.75454997      10.00000011  F       0.01411546      -0.01022916      -0.05754957
Cu       6.25757994       3.75454997      10.00000011  F      -0.01366030      -0.02604153      -0.08540716
Cu       8.76061004       3.75454997      10.00000011  F       0.01008459      -0.02087557      -0.07796639
Cu      11.26364002       3.75454997      10.00000011  F      -0.00943474       0.00642200      -0.05002646
Cu       1.25151999       6.25757994      10.00000011  F       0.00228936      -0.01050429      -0.06855436
Cu       3.75454997       6.25757994      10.00000011  F       0.01530666       0.01116620      -0.05817237
Cu       6.25757994       6.25757994      10.00000011  F      -0.01358805       0.02825493      -0.08837717
Cu       8.76061004       6.25757994      10.00000011  F       0.00857438       0.02175569      -0.07863445
Cu      11.26364002       6.25757994      10.00000011  F      -0.00890991      -0.00485524      -0.05174986
Cu       1.25151999       8.76061004      10.00000011  F       0.00190623       0.00453679      -0.07688717
Cu       3.75454997       8.76061004      10.00000011  F       0.00936577      -0.00309320      -0.06555514
Cu       6.25757994       8.76061004      10.00000011  F      -0.00122180      -0.02923135      -0.05685674
Cu       8.76061004       8.76061004      10.00000011  F      -0.00861528      -0.00961360      -0.05252656
Cu      11.26364002       8.76061004      10.00000011  F      -0.00454056      -0.00136932      -0.07107254
Cu       1.25151999      11.26364002      10.00000011  F       0.00320212       0.00183038      -0.01042088
Cu       3.75454997      11.26364002      10.00000011  F      -0.00255619       0.00154810      -0.07427350
Cu       6.25757994      11.26364002      10.00000011  F      -0.00605182       0.00212894      -0.07889460
Cu       8.76061004      11.26364002      10.00000011  F      -0.00793559       0.00166892      -0.06871412
Cu      11.26364002      11.26364002      10.00000011  F       0.00994589       0.00170993      -0.06153858
Cu       0.00000000       0.00000000      11.76991004  F      -0.00448748       0.04510105       0.14828106
Cu       2.50302998       0.00000000      11.76991004  F       0.04752479       0.02086105       0.12217989
Cu       5.00605995       0.00000000      11.76991004  F       0.04069138       0.11373078       0.13582355
Cu       7.50909005       0.00000000      11.76991004  F       0.00708959       0.07169198       0.11930112
Cu      10.01212003       0.00000000      11.76991004  F      -0.00823637       0.06856195       0.11843682
Cu       0.00000000       2.50302998      11.76991004  F      -0.09701007       0.02010980       0.09499226
Cu       2.50302998       2.50302998      11.76991004  F       0.01703875       0.06820943       0.16282695
Cu       5.00605995       2.50302998      11.76991004  F      -0.01439712      -0.02106758       0.14486604
Cu       7.50909005       2.50302998      11.76991004  F      -0.05498468      -0.02802536       0.10969562
Cu      10.01212003       2.50302998      11.76991004  F       0.08776977      -0.05885197       0.05650772
Cu       0.00000000       5.00605995      11.76991004  F      -0.14811798       0.00243725       0.06023699
Cu       2.50302998       5.00605995      11.76991004  F      -0.00209641       0.00171512       0.12949294
Cu       5.00605995       5.00605995      11.76991004  F      -0.04573153       0.00139875       0.26924249
Cu       7.50909005       5.00605995      11.76991004  F      -0.09714462       0.00132663       0.14499316
Cu      10.01212003       5.00605995      11.76991004  F       0.05630759       0.00162889       0.04631959
Cu       0.00000000       7.50909005      11.76991004  F      -0.09877728      -0.02264598       0.09679348
Cu       2.50302998       7.50909005      11.76991004  F       0.01531565      -0.07027317       0.16367260
Cu       5.00605995       7.50909005      11.76991004  F      -0.01527576       0.01712260       0.14600592
Cu       7.50909005       7.50909005      11.76991004  F      -0.05664775       0.02434647       0.11028988
Cu      10.01212003       7.50909005      11.76991004  F       0.08690660       0.05742842       0.05772045
Cu       0.00000000      10.01212003      11.76991004  F      -0.00503969      -0.04297871       0.14573592
Cu       2.50302998      10.01212003      11.76991004  F       0.04802235      -0.02059807       0.12183868
Cu       5.00605995      10.01212003      11.76991004  F       0.03983564      -0.11413332       0.13408211