109
Lattice="12.51515363 0.0 0.0 0.0 12.51515363 0.0 0.0 0.0 25.30973" Properties=species:S:1:pos:R:3:move_mask:L:1:forces:R:3 energy=-453.35748019999994 stress="0.008230970642559511 3.2377872281083286e-05 0.0004214113233426606 3.2377872281083286e-05 0.008898396659215563 0.00043875728235816735 0.0004214113233426606 0.00043875728235816735 0.003002613249716445" free_energy=-453.3556493 pbc="T T T"
Cu       1.25151999       1.25151999      10.00000011  F      -0.00158442      -0.00724810      -0.06795341
Cu       3.75454997       1.25151999      10.00000011  F       0.00932238       0.01078600      -0.06119503
Cu       6.25757994       1.25151999      10.00000011  F      -0.00371802       0.02000018      -0.04596035
Cu       8.76061004       1.25151999      10.00000011  F       0.02034481       0.01612709      -0.05309716
Cu      11.26364002       1.25151999      10.00000011  F      -0.02577963      -0.00740843      -0.07864020
Cu       1.25151999       3.75454997      10.00000011  F      -0.00183748       0.01027297      -0.06911259
Cu       3.75454997       3.75454997      10.00000011  F       0.02174150      -0.00126848      -0.05919184
Cu       6.25757994       3.75454997      10.00000011  F      -0.02965530      -0.02022881      -0.07613147
Cu       8.76061004       3.75454997      10.00000011  F       0.02452464      -0.02802814      -0.06438069
Cu      11.26364002       3.75454997      10.00000011  F      -0.01262765       0.00286529      -0.07376599
Cu       1.25151999       6.25757994      10.00000011  F       0.00428004       0.00152321      -0.07257623
Cu       3.75454997       6.25757994      10.00000011  F       0.01171462       0.00789449      -0.05451292
Cu       6.25757994       6.25757994      10.00000011  F      -0.02815855       0.01099484      -0.08076695
Cu       8.76061004       6.25757994      10.00000011  F       0.01525242       0.01238635      -0.06509399
Cu      11.26364002       6.25757994      10.00000011  F       0.00052371      -0.00720861      -0.05180097
Cu       1.25151999       8.76061004      10.00000011  F       0.00838164      -0.01152640      -0.06076479
Cu       3.75454997       8.76061004      10.00000011  F      -0.00550327      -0.01750501      -0.07351624
Cu       6.25757994       8.76061004      10.00000011  F       0.00293185       0.00173091      -0.05832963
Cu       8.76061004       8.76061004      10.00000011  F       0.00431413       0.00663702      -0.04987293
Cu      11.26364002       8.76061004      10.00000011  F      -0.01032873       0.00425171      -0.07102924
Cu       1.25151999      11.26364002      10.00000011  F      -0.00370237       0.00520086      -0.00677739
Cu       3.75454997      11.26364002      10.00000011  F       0.00345191       0.00012343      -0.06496111
Cu       6.25757994      11.26364002      10.00000011  F      -0.00301244      -0.01217736      -0.06019015
Cu       8.76061004      11.26364002      10.00000011  F       0.00498593      -0.00767552      -0.06616954
Cu      11.26364002      11.26364002      10.00000011  F      -0.00639165       0.00853478      -0.05671029
Cu       0.00000000       0.00000000      11.76991004  F      -0.01534722       0.03338036       0.13843155
Cu       2.50302998       0.00000000      11.76991004  F       0.05385803       0.03351624       0.12264039
Cu       5.00605995       0.00000000      11.76991004  F       0.05767462       0.09515011       0.13081405
Cu       7.50909005       0.00000000      11.76991004  F       0.02279278       0.09315931       0.16000478
Cu      10.01212003       0.00000000      11.76991004  F      -0.01452726       0.09164502       0.14888076
Cu       0.00000000       2.50302998      11.76991004  F      -0.02625371       0.04605764       0.14403259
Cu       2.50302998       2.50302998      11.76991004  F       0.04012010       0.03651979       0.13008960
Cu       5.00605995       2.50302998      11.76991004  F       0.00841708      -0.02520171       0.09370579
Cu       7.50909005       2.50302998      11.76991004  F      -0.01549896      -0.01010560       0.13756281
Cu      10.01212003       2.50302998      11.76991004  F       0.05561911      -0.06545118       0.03088261
Cu       0.00000000       5.00605995      11.76991004  F      -0.04936308       0.00953025       0.08843102
Cu       2.50302998       5.00605995      11.76991004  F       0.04841809      -0.01290048       0.16410153
Cu       5.00605995       5.00605995      11.76991004  F      -0.01778604       0.03331694       0.18749622
Cu       7.50909005       5.00605995      11.76991004  F      -0.05410795       0.04922873       0.13318246
Cu      10.01212003       5.00605995      11.76991004  F       0.03559916       0.03562990       0.04541074
Cu       0.00000000       7.50909005      11.76991004  F      -0.03936870      -0.06751908       0.14125444
Cu       2.50302998       7.50909005      11.76991004  F       0.06063763      -0.03053028       0.11372844
Cu       5.00605995       7.50909005      11.76991004  F       0.02552440       0.03672193       0.11127326
Cu       7.50909005       7.50909005      11.76991004  F      -0.01630796       0.05101984       0.14663340
Cu      10.01212003       7.50909005      11.76991004  F       0.04888363       0.08962019       0.07669990
Cu       0.00000000      10.01212003      11.76991004  F      -0.00223172      -0.03106904       0.15741088
Cu       2.50302998      10.01212003      11.76991004  F       0.04266715      -0.03007580       0.13137149
Cu       5.00605995      10.01212003      11.76991004  F       0.08487169      -0.04291177       0.14264305
Cu       7.50909005      10.01212003      11.76991004  F       0.02378481      -0.02871805       0.11559422
Cu      10.01212003      10.01212003      11.76991004  F      -0.03042593      -0.05946799       0.14542825
Cu       1.27009674       1.24635224      13.58665030  T       0.00373253      -0.01171414      -0.00159773
Cu       3.79430248       1.26980288      13.61241865  T      -0.00937632      -0.00618878      -0.02228947
Cu       6.30321407       1.28390458      13.62798135  T      -0.00364625      -0.01043926      -0.01578919
Cu       8.76976100       1.28861679      13.62413604  T      -0.00448039      -0.00793170      -0.00674630
Cu      11.26634292       1.26580992      13.61372387  T       0.00636909      -0.01301563      -0.00620277
Cu       1.25419774       3.76329431      13.59838845  T      -0.00287101      -0.00109312       0.00073241
Cu       3.75976979       3.76450227      13.60832961  T      -0.02174994       0.00015871      -0.01859120
Cu       6.25459546       3.79358786      13.58734708  T      -0.00479814       0.00123012      -0.02457433
Cu       8.74876458       3.78190897      13.55363629  T      -0.00977379      -0.01322937      -0.04706857
Cu      11.23271858       3.76339806      13.59866407  T      -0.00596714      -0.00010400      -0.00127463
Cu       1.25693505       6.23791488      13.59554971  T      -0.00336758       0.00651771      -0.01074961
Cu       3.76807172       6.25899391      13.60013052  T      -0.02537370       0.00423012      -0.01445119
Cu       6.26748043       6.25010302      13.60436180  T      -0.00999367      -0.01254777      -0.03287311
Cu       8.74645691       6.26346169      13.56506186  T      -0.01119471      -0.00866113      -0.03889409
Cu      11.23091427       6.25726907      13.60913091  T       0.00190078      -0.00321103      -0.00496817
Cu       1.27281703       8.75443644      13.58940881  T       0.00121167       0.02229231      -0.00456314
Cu       3.79249429       8.75072520      13.61089044  T      -0.01029266       0.00199317      -0.01149794
Cu       6.29893689       8.75558621      13.61975619  T       0.00098607      -0.00318048       0.00251633
Cu       8.77376910       8.75227896      13.62550631  T      -0.00869058      -0.00027372       0.00584974
Cu      11.27282652       8.74952988      13.61374285  T       0.00499207       0.00920336      -0.01135265
Cu       1.25040765      11.25803736      13.60748477  T      -0.01015485      -0.00585455      -0.01337722
Cu       3.75172280      11.26874683      13.58338509  T      -0.01122115       0.00478910      -0.00403486
Cu       6.27534032      11.29380967      13.59385700  T       0.00403746       0.00431495      -0.00236589
Cu       8.75354011      11.28998317      13.59317591  T      -0.00027835      -0.00331836      -0.00424319
Cu      11.26863181      11.26685842      13.58834226  T       0.01675616      -0.00244513       0.00154896
Cu       0.01223043      12.51342666      15.39834988  T      -0.01408301       0.01230012      -0.08504645
Cu       2.51145230      12.50693530      15.39471616  T       0.00704023       0.01089273      -0.08800016
Cu       5.00249463      12.50661404      15.37108067  T       0.00284667      -0.00924370      -0.05284714
Cu       7.54351248       0.05204527      15.50962968  T       0.01258289      -0.03148447      -0.07902012
Cu      10.04352630      12.50715019      15.38274264  T      -0.01594330      -0.00184712      -0.04486550
Cu       0.07004181       2.50572011      15.37981886  T       0.00469384       0.00172272      -0.04813714
Cu       2.53460859       2.47820417      15.37476526  T      -0.00896790       0.01248630      -0.04735616
Cu       5.02770716       2.44673744      15.46217318  T      -0.04770709      -0.06408568      -0.09043022
Cu       7.55711808       2.61356231      15.42050678  T       0.03467304      -0.06606686      -0.13413493
Cu      10.11226704       2.49508536      15.44697190  T       0.05820362      -0.05945968      -0.08666323
Cu      12.41273925       4.99817453      15.36786583  T      -0.01239934       0.00050511      -0.07044983
Cu       2.28293435       5.00030636      15.53546560  T      -0.04829769      -0.00384006      -0.10018739
Pd       4.82035447       5.03662671      15.65637322  T      -0.03793804       0.00186082      -0.11010993
Y        7.50742266       5.02886231      17.25207475  T      -0.04761601      -0.00011254       0.06815494
Cu       9.93630986       5.01737040      15.45155498  T       0.09068999      -0.02837717      -0.13765873
Cu       0.08641689       7.49367088      15.38287121  T       0.00523045      -0.00868423      -0.05386852
Cu       2.55134010       7.51714330      15.37424945  T       0.00867337      -0.00221797      -0.05043041
Cu       5.04610031       7.61719369      15.46941454  T      -0.05557255       0.06392684      -0.08477506
Cu       7.58693456       7.51512573      15.48791165  T       0.03088313       0.09212847      -0.12702466
Cu      10.13020964       7.56932699      15.47146311  T       0.03893104       0.04669704      -0.08195713
Cu      12.51105029       9.99638647      15.40109523  T      -0.00344410      -0.00120210      -0.08849810
Cu       2.50552112      10.00580263      15.39438992  T       0.01078573      -0.01195559      -0.08310738
Cu       5.00481745      10.06528577      15.36678080  T       0.00407131      -0.01176398      -0.04761744
Cu       7.51275737      10.05807554      15.37511682  T       0.00337740      -0.02585149      -0.06909388
Cu      10.01845394      10.04468571      15.37916511  T      -0.01545154      -0.01325889      -0.06277657
O        6.18095792       3.44338645      16.64822787  T      -0.08635580       0.01016113       0.13191812
O        6.20229225       6.64353739      16.66040236  T      -0.08927663      -0.03493591       0.12545766
O        9.01455140       6.44086524      16.54699022  T       0.03272018       0.07594585       0.11052465
O        9.00974808       3.57391763      16.58931593  T       0.02871662      -0.09818918       0.08360721
C        7.67546375       0.59220455      17.40512724  T       0.33218164       0.33426900      -0.09599304
O        7.03452669       0.04272824      18.26804502  T      -0.13641761      -0.17193391       0.18973882
H        8.34319175       1.48053404      17.65461791  T      -0.18854472      -0.30609277      -0.02736907
C        3.39744070       5.04110088      17.12751874  T      -0.06792625       0.00281100      -0.46094105
O        3.53747313       5.05545851      18.28908551  T      -0.04423497       0.00377530       0.49061248
109
Lattice="12.51515363 0.0 0.0 0.0 12.51515363 0.0 0.0 0.0 25.30973" Properties=species:S:1:pos:R:3:move_mask:L:1:forces:R:3 energy=-453.36031219 stress="0.008259200170698184 4.660825718622295e-05 0.00037986913059317063 4.660825718622295e-05 0.008895825531946247 0.00038649041682483655 0.00037986913059317063 0.00038649041682483655 0.0033020875796816525" free_energy=-453.35844033 pbc="T T T"
Cu       1.25151999       1.25151999      10.00000011  F      -0.00196658      -0.00738750      -0.06857235
Cu       3.75454997       1.25151999      10.00000011  F       0.00921418       0.01063570      -0.06180664
Cu       6.25757994       1.25151999      10.00000011  F      -0.00355840       0.01990411      -0.04623616
Cu       8.76061004       1.25151999      10.00000011  F       0.02046083       0.01597262      -0.05337427
Cu      11.26364002       1.25151999      10.00000011  F      -0.02582874      -0.00759978      -0.07888130
Cu       1.25151999       3.75454997      10.00000011  F      -0.00217563       0.00992751      -0.06981545
Cu       3.75454997       3.75454997      10.00000011  F       0.02173163      -0.00139962      -0.05979962
Cu       6.25757994       3.75454997      10.00000011  F      -0.02949568      -0.02037262      -0.07668808
Cu       8.76061004       3.75454997      10.00000011  F       0.02456359      -0.02809111      -0.06468300
Cu      11.26364002       3.75454997      10.00000011  F      -0.01274920       0.00261063      -0.07423298
Cu       1.25151999       6.25757994      10.00000011  F       0.00397011       0.00190188      -0.07334832
Cu       3.75454997       6.25757994      10.00000011  F       0.01172977       0.00804632      -0.05537165
Cu       6.25757994       6.25757994      10.00000011  F      -0.02807741       0.01104160      -0.08145818
Cu       8.76061004       6.25757994      10.00000011  F       0.01530768       0.01232209      -0.06543202
Cu      11.26364002       6.25757994      10.00000011  F       0.00045033      -0.00704787      -0.05237150
Cu       1.25151999       8.76061004      10.00000011  F       0.00803446      -0.01149531      -0.06164283
Cu       3.75454997       8.76061004      10.00000011  F      -0.00570371      -0.01751717      -0.07422421
Cu       6.25757994       8.76061004      10.00000011  F       0.00311713       0.00178370      -0.05881770
Cu       8.76061004       8.76061004      10.00000011  F       0.00447660       0.00687823      -0.05005964
Cu      11.26364002       8.76061004      10.00000011  F      -0.01037346       0.00446230      -0.07156804
Cu       1.25151999      11.26364002      10.00000011  F      -0.00413947       0.00522102      -0.00777554
Cu       3.75454997      11.26364002      10.00000011  F       0.00333839       0.00024324      -0.06553716
Cu       6.25757994      11.26364002      10.00000011  F      -0.00285358      -0.01205524      -0.06049613
Cu       8.76061004      11.26364002      10.00000011  F       0.00527480      -0.00763208      -0.06616455
Cu      11.26364002      11.26364002      10.00000011  F      -0.00658784       0.00862531      -0.05714120
Cu       0.00000000       0.00000000      11.76991004  F      -0.01569450       0.03348875       0.13695913
Cu       2.50302998       0.00000000      11.76991004  F       0.05347024       0.03342676       0.12111195
Cu       5.00605995       0.00000000      11.76991004  F       0.05792266       0.09469866       0.12926203
Cu       7.50909005       0.00000000      11.76991004  F       0.02312404       0.09291340       0.15855477
Cu      10.01212003       0.00000000      11.76991004  F      -0.01459828       0.09135111       0.14819210
Cu       0.00000000       2.50302998      11.76991004  F      -0.02680606       0.04555601       0.14302933
Cu       2.50302998       2.50302998      11.76991004  F       0.03955373       0.03615114       0.12873564
Cu       5.00605995       2.50302998      11.76991004  F       0.00834426      -0.02562371       0.09234436
Cu       7.50909005       2.50302998      11.76991004  F      -0.01545488      -0.01113178       0.13576725
Cu      10.01212003       2.50302998      11.76991004  F       0.05611684      -0.06614978       0.02969726
Cu       0.00000000       5.00605995      11.76991004  F      -0.04972107       0.00947314       0.08723690
Cu       2.50302998       5.00605995      11.76991004  F       0.04751316      -0.01307224       0.16287801
Cu       5.00605995       5.00605995      11.76991004  F      -0.01798230       0.03321077       0.18606296
Cu       7.50909005       5.00605995      11.76991004  F      -0.05412114       0.04915940       0.13077819
Cu      10.01212003       5.00605995      11.76991004  F       0.03591703       0.03547863       0.04363578
Cu       0.00000000       7.50909005      11.76991004  F      -0.03996813      -0.06716485       0.13981982
Cu       2.50302998       7.50909005      11.76991004  F       0.06026655      -0.02975192       0.11243221
Cu       5.00605995       7.50909005      11.76991004  F       0.02525671       0.03709939       0.10994845
Cu       7.50909005       7.50909005      11.76991004  F      -0.01602772       0.05180896       0.14489029
Cu      10.01212003       7.50909005      11.76991004  F       0.04909652       0.09014781       0.07553957
Cu       0.00000000      10.01212003      11.76991004  F      -0.00280263      -0.03095517       0.15581460
Cu       2.50302998      10.01212003      11.76991004  F       0.04245753      -0.03002938       0.12967022
Cu       5.00605995      10.01212003      11.76991004  F       0.08540055      -0.04234802       0.14200309
Cu       7.50909005      10.01212003      11.76991004  F       0.02388198      -0.02858508       0.11426835
Cu      10.01212003      10.01212003      11.76991004  F      -0.03060285      -0.05926855       0.14442435
Cu       1.27013278       1.24623922      13.58663486  T       0.00332265      -0.01031652      -0.00469497
Cu       3.79421199       1.26974306      13.61220351  T      -0.00918858      -0.00592590      -0.02435721
Cu       6.30317891       1.28380396      13.62782898  T      -0.00393827      -0.01063502      -0.01825299
Cu       8.76971782       1.28854032      13.62407099  T      -0.00304313      -0.00853663      -0.01149219
Cu      11.26640437       1.26568439      13.61366414  T       0.00592914      -0.01285297      -0.01045238
Cu       1.25417008       3.76328379      13.59839554  T      -0.00407701      -0.00159371      -0.00384289
Cu       3.75955991       3.76450377      13.60815016  T      -0.01993268      -0.00059619      -0.02183668
Cu       6.25454915       3.79359975      13.58711018  T      -0.00408093      -0.00010054      -0.02353053
Cu       8.74867034       3.78178132      13.55318198  T      -0.00900551      -0.01241198      -0.04454391
Cu      11.23266101       3.76339706      13.59865167  T      -0.00541191      -0.00160915      -0.00584538
Cu       1.25690264       6.23797783      13.59544594  T      -0.00433918       0.00682939      -0.01431140
Cu       3.76782692       6.25903471      13.59999106  T      -0.02330304       0.00440749      -0.01848358
Cu       6.26738406       6.24998199      13.60404467  T      -0.00898384      -0.01063450      -0.03121046
Cu       8.74634890       6.26337809      13.56468677  T      -0.01034669      -0.00838072      -0.03611394
Cu      11.23093267       6.25723803      13.60908282  T       0.00149872      -0.00167278      -0.00886990
Cu       1.27282867       8.75465158      13.58936477  T       0.00087834       0.01974939      -0.00735611
Cu       3.79239504       8.75074447      13.61077959  T      -0.00990474       0.00262488      -0.01508382
Cu       6.29894641       8.75555555      13.61978049  T       0.00027810      -0.00301188      -0.00188467
Cu       8.77368525       8.75227633      13.62556275  T      -0.00667721       0.00007196       0.00004791
Cu      11.27287470       8.74961874      13.61363326  T       0.00467692       0.00860071      -0.01512979
Cu       1.25030965      11.25798079      13.60735569  T      -0.00910965      -0.00498387      -0.01580083
Cu       3.75161454      11.26879301      13.58334612  T      -0.00984365       0.00422687      -0.00692624
Cu       6.27537925      11.29385122      13.59383422  T       0.00437516       0.00429117      -0.00367076
Cu       8.75353748      11.28995125      13.59313491  T      -0.00003890      -0.00351327      -0.00725146
Cu      11.26879351      11.26683489      13.58835719  T       0.01365873      -0.00185720      -0.00154266
Cu       0.01209452      12.51354543      15.39752934  T      -0.01372308       0.01161769      -0.08068752
Cu       2.51152026      12.50704043      15.39386728  T       0.00588352       0.01005705      -0.08350925
Cu       5.00252204      12.50652481      15.37057068  T       0.00285566      -0.01044722      -0.04954127
Cu       7.54363388       0.05174152      15.50886735  T       0.01359575      -0.02492240      -0.05578421
Cu      10.04337237      12.50713242      15.38230959  T      -0.01678210      -0.00286090      -0.04126295
Cu       0.07008699       2.50573675      15.37935442  T       0.00483491       0.00141753      -0.04638727
Cu       2.53452198       2.47832456      15.37430842  T      -0.00949334       0.01245752      -0.04372459
Cu       5.02724685       2.44611907      15.46130050  T      -0.03460205      -0.05104201      -0.07658691
Cu       7.55745273       2.61292491      15.41921269  T       0.02660369      -0.05589002      -0.11172367
Cu      10.11282859       2.49451166      15.44613567  T       0.04803838      -0.04803500      -0.07524468
Cu      12.41261960       4.99817941      15.36718601  T      -0.01092193       0.00040510      -0.06656032
Cu       2.28246829       5.00026931      15.53449877  T      -0.05310489      -0.00358506      -0.09870346
Pd       4.81998853       5.03664461      15.65531071  T      -0.03010497       0.00075980      -0.06923851
Y        7.50696323       5.02886118      17.25273230  T      -0.03972017      -0.00093277       0.06755631
Cu       9.93718479       5.01709656      15.45022673  T       0.07212931      -0.02489859      -0.11774195
Cu       0.08646732       7.49358715      15.38235135  T       0.00533538      -0.00779880      -0.05188456
Cu       2.55142382       7.51712190      15.37376300  T       0.00635745      -0.00338159      -0.04599508
Cu       5.04556403       7.61781057      15.46859678  T      -0.04130167       0.05001127      -0.07023925
Cu       7.58723254       7.51601468      15.48668616  T       0.02302856       0.07379469      -0.10650966
Cu      10.13058522       7.56977753      15.47067244  T       0.02899896       0.03485347      -0.07043334
Cu      12.51101700       9.99637496      15.40024128  T      -0.00361743      -0.00096762      -0.08362606
Cu       2.50562524      10.00568724      15.39358811  T       0.00991899      -0.01051973      -0.07896199
Cu       5.00485674      10.06517226      15.36632143  T       0.00443375      -0.00916224      -0.04586714
Cu       7.51278991      10.05782612      15.37445016  T       0.00252515      -0.02339557      -0.06540137
Cu      10.01830489      10.04455780      15.37855945  T      -0.01437594      -0.01108762      -0.06032968
O        6.18012478       3.44348445      16.64950070  T      -0.08667843       0.00149910       0.10780443
O        6.20143096       6.64320036      16.66161267  T      -0.08849134      -0.02403318       0.10101595
O        9.01486703       6.44159801      16.54805677  T       0.03592122       0.07399136       0.09204584
O        9.01002517       3.57297036      16.59012255  T       0.03095593      -0.09603091       0.06637346
C        7.67866888       0.59542983      17.40420116  T      -0.01573095      -0.01666208       0.17408090
O        7.03321047       0.04106923      18.26987593  T       0.11967419       0.05111373      -0.15028406
H        8.34137255       1.47758071      17.65435393  T      -0.09785194      -0.18403223       0.01714679
C        3.39678528       5.04112804      17.12307131  T       0.03626467       0.01286551       0.35784142
O        3.53704636       5.05549493      18.29381919  T      -0.13695013      -0.00618872      -0.33275767
109
Lattice="12.51515363 0.0 0.0 0.0 12.51515363 0.0 0.0 0.0 25.30973" Properties=species:S:1:pos:R:3:move_mask:L:1:forces:R:3 energy=-453.36433545 stress="0.008259809017430397 3.3850194351806136e-05 0.00037879121572562146 3.3850194351806136e-05 0.008903110003488575 0.00040254574410027497 0.00037879121572562146 0.00040254574410027497 0.0032199006857459196" free_energy=-453.36247164 pbc="T T T"
Cu       1.25151999       1.25151999      10.00000011  F      -0.00209612      -0.00724037      -0.06851331
Cu       3.75454997       1.25151999      10.00000011  F       0.00931033       0.01088701      -0.06201691
Cu       6.25757994       1.25151999      10.00000011  F      -0.00339115       0.02013535      -0.04655367
Cu       8.76061004       1.25151999      10.00000011  F       0.02040175       0.01617606      -0.05354274
Cu      11.26364002       1.25151999      10.00000011  F      -0.02604347      -0.00742408      -0.07896933
Cu       1.25151999       3.75454997      10.00000011  F      -0.00223127       0.01003880      -0.06956648
Cu       3.75454997       3.75454997      10.00000011  F       0.02181479      -0.00124852      -0.05963809
Cu       6.25757994       3.75454997      10.00000011  F      -0.02933164      -0.02013778      -0.07661399
Cu       8.76061004       3.75454997      10.00000011  F       0.02445449      -0.02795776      -0.06462984
Cu      11.26364002       3.75454997      10.00000011  F      -0.01296215       0.00275163      -0.07402793
Cu       1.25151999       6.25757994      10.00000011  F       0.00389900       0.00173870      -0.07309567
Cu       3.75454997       6.25757994      10.00000011  F       0.01189655       0.00789855      -0.05515176
Cu       6.25757994       6.25757994      10.00000011  F      -0.02791427       0.01087239      -0.08114310
Cu       8.76061004       6.25757994      10.00000011  F       0.01515953       0.01223137      -0.06517493
Cu      11.26364002       6.25757994      10.00000011  F       0.00019485      -0.00719976      -0.05203200
Cu       1.25151999       8.76061004      10.00000011  F       0.00788939      -0.01163252      -0.06166605
Cu       3.75454997       8.76061004      10.00000011  F      -0.00554036      -0.01779852      -0.07418029
Cu       6.25757994       8.76061004      10.00000011  F       0.00331347       0.00152141      -0.05886532
Cu       8.76061004       8.76061004      10.00000011  F       0.00436788       0.00670899      -0.04995007
Cu      11.26364002       8.76061004      10.00000011  F      -0.01062177       0.00429336      -0.07147722
Cu       1.25151999      11.26364002      10.00000011  F      -0.00437111       0.00520418      -0.00807389
Cu       3.75454997      11.26364002      10.00000011  F       0.00340190       0.00020195      -0.06587805
Cu       6.25757994      11.26364002      10.00000011  F      -0.00265410      -0.01215299      -0.06079344
Cu       8.76061004      11.26364002      10.00000011  F       0.00522088      -0.00777190      -0.06641046
Cu      11.26364002      11.26364002      10.00000011  F      -0.00673056       0.00857757      -0.05724196
Cu       0.00000000       0.00000000      11.76991004  F      -0.01585954       0.03363233       0.13661759
Cu       2.50302998       0.00000000      11.76991004  F       0.05324627       0.03350129       0.12089530
Cu       5.00605995       0.00000000      11.76991004  F       0.05797724       0.09468664       0.12922243
Cu       7.50909005       0.00000000      11.76991004  F       0.02328195       0.09275825       0.15839162
Cu      10.01212003       0.00000000      11.76991004  F      -0.01455837       0.09121213       0.14821739
Cu       0.00000000       2.50302998      11.76991004  F      -0.02681313       0.04599125       0.14326121
Cu       2.50302998       2.50302998      11.76991004  F       0.03923599       0.03674028       0.12880910
Cu       5.00605995       2.50302998      11.76991004  F       0.00835395      -0.02496193       0.09240093
Cu       7.50909005       2.50302998      11.76991004  F      -0.01585143      -0.01078501       0.13544309
Cu      10.01212003       2.50302998      11.76991004  F       0.05637806      -0.06602612       0.02937980
Cu       0.00000000       5.00605995      11.76991004  F      -0.04975302       0.00947262       0.08738930
Cu       2.50302998       5.00605995      11.76991004  F       0.04742772      -0.01302493       0.16279734
Cu       5.00605995       5.00605995      11.76991004  F      -0.01832496       0.03341057       0.18597936
Cu       7.50909005       5.00605995      11.76991004  F      -0.05456427       0.04950296       0.13005587
Cu      10.01212003       5.00605995      11.76991004  F       0.03613714       0.03571711       0.04334217
Cu       0.00000000       7.50909005      11.76991004  F      -0.04011703      -0.06748827       0.14002566
Cu       2.50302998       7.50909005      11.76991004  F       0.06019160      -0.03011075       0.11262370
Cu       5.00605995       7.50909005      11.76991004  F       0.02537621       0.03657351       0.11034036
Cu       7.50909005       7.50909005      11.76991004  F      -0.01634121       0.05150640       0.14502436
Cu      10.01212003       7.50909005      11.76991004  F       0.04901834       0.08997920       0.07565345
Cu       0.00000000      10.01212003      11.76991004  F      -0.00301256      -0.03129313       0.15534776
Cu       2.50302998      10.01212003      11.76991004  F       0.04234160      -0.03035755       0.12946167
Cu       5.00605995      10.01212003      11.76991004  F       0.08559457      -0.04276741       0.14244315