109
Lattice="12.51515363 0.0 0.0 0.0 12.51515363 0.0 0.0 0.0 25.30973" Properties=species:S:1:pos:R:3:move_mask:L:1:forces:R:3 energy=-453.26980312 stress="0.007411845289610159 -2.570550553873118e-05 0.000258887063145941 -2.570550553873118e-05 0.008530902200517243 0.00024609969642617823 0.000258887063145941 0.00024609969642617823 0.0030813165639222394" free_energy=-453.27192489 pbc="T T T"
Cu       1.25151999       1.25151999      10.00000011  F       0.00402674      -0.01091874      -0.06789904
Cu       3.75454997       1.25151999      10.00000011  F       0.00359631       0.01006890      -0.06533331
Cu       6.25757994       1.25151999      10.00000011  F      -0.00326956       0.02809862      -0.04611352
Cu       8.76061004       1.25151999      10.00000011  F       0.00442842       0.01139474      -0.04214449
Cu      11.26364002       1.25151999      10.00000011  F      -0.01158639      -0.00561856      -0.07401780
Cu       1.25151999       3.75454997      10.00000011  F       0.00342710       0.01016880      -0.07787838
Cu       3.75454997       3.75454997      10.00000011  F       0.00568170      -0.00219015      -0.05544626
Cu       6.25757994       3.75454997      10.00000011  F      -0.01304124      -0.02282526      -0.08402009
Cu       8.76061004       3.75454997      10.00000011  F       0.00587567      -0.02109590      -0.07525721
Cu      11.26364002       3.75454997      10.00000011  F      -0.00096166       0.00966571      -0.05157017
Cu       1.25151999       6.25757994      10.00000011  F       0.00572991       0.00073976      -0.08457154
Cu       3.75454997       6.25757994      10.00000011  F       0.01085967       0.01883960      -0.06507515
Cu       6.25757994       6.25757994      10.00000011  F      -0.01629611       0.02349367      -0.08897378
Cu       8.76061004       6.25757994      10.00000011  F       0.00449634       0.01925548      -0.07437793
Cu      11.26364002       6.25757994      10.00000011  F      -0.00338306       0.00281630      -0.05331752
Cu       1.25151999       8.76061004      10.00000011  F       0.00623412      -0.00219363      -0.07810049
Cu       3.75454997       8.76061004      10.00000011  F      -0.01331680      -0.02764809      -0.06927453
Cu       6.25757994       8.76061004      10.00000011  F      -0.00115226      -0.02973621      -0.05497739
Cu       8.76061004       8.76061004      10.00000011  F       0.00010807      -0.01358707      -0.05163038
Cu      11.26364002       8.76061004      10.00000011  F       0.00569921      -0.01252646      -0.06749463
Cu       1.25151999      11.26364002      10.00000011  F       0.00445481      -0.00070266      -0.00253592
Cu       3.75454997      11.26364002      10.00000011  F      -0.00467009       0.00148000      -0.07300977
Cu       6.25757994      11.26364002      10.00000011  F      -0.00151092       0.00157193      -0.06177946
Cu       8.76061004      11.26364002      10.00000011  F      -0.00122187       0.00322001      -0.05795930
Cu      11.26364002      11.26364002      10.00000011  F       0.00134581       0.00750260      -0.06752529
Cu       0.00000000       0.00000000      11.76991004  F      -0.00583529       0.04955985       0.16412419
Cu       2.50302998       0.00000000      11.76991004  F       0.03985187       0.03732748       0.13211014
Cu       5.00605995       0.00000000      11.76991004  F       0.05941512       0.08098935       0.12926167
Cu       7.50909005       0.00000000      11.76991004  F       0.01561606       0.08450272       0.12255511
Cu      10.01212003       0.00000000      11.76991004  F      -0.01047299       0.07320491       0.12455779
Cu       0.00000000       2.50302998      11.76991004  F      -0.08526442      -0.00444228       0.09195596
Cu       2.50302998       2.50302998      11.76991004  F       0.06408831       0.02518389       0.13154011
Cu       5.00605995       2.50302998      11.76991004  F      -0.01638028      -0.02268789       0.14530564
Cu       7.50909005       2.50302998      11.76991004  F      -0.01023905      -0.02672687       0.11091128
Cu      10.01212003       2.50302998      11.76991004  F       0.05584365      -0.09368949       0.02802893
Cu       0.00000000       5.00605995      11.76991004  F      -0.11929294       0.00598727       0.06272667
Cu       2.50302998       5.00605995      11.76991004  F       0.03952488       0.00744410       0.12524297
Cu       5.00605995       5.00605995      11.76991004  F      -0.04759549       0.03401782       0.25186246
Cu       7.50909005       5.00605995      11.76991004  F      -0.08157754       0.05430813       0.12982115
Cu      10.01212003       5.00605995      11.76991004  F       0.05179470       0.05059650       0.01880080
Cu       0.00000000       7.50909005      11.76991004  F      -0.09896734      -0.00145669       0.11394219
Cu       2.50302998       7.50909005      11.76991004  F       0.09700801      -0.02477736       0.13603638
Cu       5.00605995       7.50909005      11.76991004  F      -0.02929940       0.00875807       0.14264642
Cu       7.50909005       7.50909005      11.76991004  F      -0.02921472       0.03006870       0.12227861
Cu      10.01212003       7.50909005      11.76991004  F       0.07975831       0.07677631       0.03770993
Cu       0.00000000      10.01212003      11.76991004  F       0.01411236      -0.05066080       0.16872234
Cu       2.50302998      10.01212003      11.76991004  F       0.02925905      -0.06087275       0.13797935
Cu       5.00605995      10.01212003      11.76991004  F       0.08565825      -0.04156815       0.17974511
Cu       7.50909005      10.01212003      11.76991004  F       0.02348262      -0.01267155       0.12487059
Cu      10.01212003      10.01212003      11.76991004  F      -0.03759004      -0.00513225       0.15935683
Cu       1.27331313       1.24410664      13.59473752  T      -0.00627104      -0.01996669       0.00181329
Cu       3.78573398       1.27508315      13.60812586  T      -0.00380901      -0.01024284      -0.01369474
Cu       6.30166432       1.27910715      13.62220870  T      -0.00666298      -0.01373106      -0.01569097
Cu       8.77853062       1.28307896      13.62450683  T       0.00223479      -0.01748136      -0.02133467
Cu      11.26954041       1.27680161      13.62037653  T       0.00993813      -0.01577159      -0.01272252
Cu       1.22429515       3.74439993      13.56593252  T      -0.00552100       0.01099059      -0.00810051
Cu       3.75800240       3.79008199      13.62513147  T      -0.01338953       0.00134979      -0.01054294
Cu       6.24871321       3.79287487      13.58351190  T      -0.00357588      -0.00414375       0.00044872
Cu       8.74714587       3.78089737      13.54592467  T      -0.00140433      -0.01095921      -0.03706296
Cu      11.21383058       3.76399816      13.60594138  T       0.01503855      -0.00135225      -0.02017408
Cu       1.22787687       6.25519030      13.56490342  T      -0.00192883       0.00273269      -0.00855335
Cu       3.77023609       6.23432441      13.62746680  T      -0.01623916      -0.00191351      -0.01852933
Cu       6.24920368       6.24002056      13.60536179  T      -0.00507777      -0.00155296      -0.02926994
Cu       8.73675604       6.25919089      13.55664056  T       0.01091999      -0.00077660      -0.03916384
Cu      11.21070855       6.26285733      13.61495797  T       0.01897371       0.00318052      -0.02591890
Cu       1.28064964       8.75377264      13.59870229  T      -0.00739881       0.02149529       0.00007702
Cu       3.79018149       8.73641850      13.61892932  T      -0.01233627       0.01278519      -0.02278961
Cu       6.29055349       8.74402734      13.60940223  T      -0.00145088       0.00233334      -0.00462714
Cu       8.78732076       8.75022422      13.61005927  T       0.00440414       0.00951952      -0.00596063
Cu      11.27613102       8.74925442      13.62015026  T       0.01270409       0.01335588      -0.01299589
Cu       1.24950455      11.25605634      13.61147257  T      -0.01566946      -0.00112823      -0.01679977
Cu       3.74497600      11.26248424      13.58182804  T      -0.01310547       0.00256893       0.00315554
Cu       6.27162044      11.29202689      13.59786884  T      -0.00702911       0.00449113      -0.00545339
Cu       8.75384811      11.29637991      13.60125984  T      -0.00867530      -0.00532736      -0.00045861
Cu      11.26946395      11.27024464      13.58797527  T       0.01911466      -0.00575944       0.00609706
Cu       0.01024603       0.00174887      15.40385855  T      -0.00649306       0.01785480      -0.09335840
Cu       2.50094382      12.51428858      15.39694216  T       0.01685276       0.01254706      -0.08506966
Cu       4.97849069      12.51111349      15.37081593  T      -0.00235982      -0.01476771      -0.05308513
Cu       7.51823337      12.50947926      15.49593053  T      -0.00441465      -0.01498301      -0.02820561
Cu      10.05240618       0.01025529      15.38268847  T      -0.00472302       0.00299264      -0.04578257
Cu       0.07215649       2.51194252      15.38328705  T      -0.00387115      -0.00531110      -0.04433986
Cu       2.54312127       2.52021453      15.38700151  T       0.01870346       0.01377106      -0.03953787
Cu       5.01074162       2.47973177      15.41834330  T       0.04585391       0.03334800       0.02675251
Cu       7.60936284       2.56997441      15.40055208  T       0.04846206       0.07885675       0.03720826
Cu      10.11326437       2.51532136      15.49044870  T      -0.03247341       0.01930700       0.02322206
Cu      12.35536528       5.00042112      15.36845529  T      -0.02293486       0.00824535      -0.04468737
Cu       2.20035962       4.99537864      15.41624614  T      -0.00703315      -0.00728401      -0.04693754
Pd       4.57149126       5.04550759      15.93582022  T       0.11718896       0.00547128       0.05041724
Y        7.47404637       5.06567050      17.21688385  T       0.18239381      -0.05489944       1.30325240
Cu       9.89723742       5.03095209      15.45450256  T       0.00153868      -0.01880117       0.00849645
Cu       0.08992864       7.49384447      15.38384209  T       0.00355001      -0.00988175      -0.04596598
Cu       2.56633250       7.45626121      15.40018990  T       0.00909519      -0.01364815      -0.03697949
Cu       5.03101329       7.58001831      15.46322100  T       0.06455321      -0.02662308       0.03843088
Cu       7.62244943       7.53480318      15.43492649  T       0.06209579      -0.06571178       0.06163647
Cu      10.12963306       7.56844154      15.49952477  T      -0.04871214      -0.05906705       0.02737583
Cu      12.51061188       9.99872431      15.40453533  T      -0.00004199      -0.00759252      -0.09113474
Cu       2.50795606       9.98610866      15.39771258  T       0.00830252      -0.00952224      -0.07907242
Cu       5.00854834      10.06061675      15.36347434  T       0.01474799       0.00912505      -0.04883917
Cu       7.51376922      10.03298216      15.35556809  T      -0.00636659      -0.02720010      -0.06642814
Cu      10.01385262      10.04985860      15.37621475  T      -0.01204871      -0.00677634      -0.06040818
O        6.26547400       3.54378965      16.43152191  T      -0.72494136      -0.78620766      -0.54831361
O        6.30972708       6.69367348      16.58658729  T      -0.73174390       0.79360528      -0.54970499
O        9.02980487       6.43277107      16.62247041  T       0.68455238       0.75569830      -0.50732504
O        8.98801326       3.63218906      16.62434308  T       0.66917665      -0.76564033      -0.50324434
C        4.42990821       5.02643149      17.91097257  T       0.12670379      -0.01161566       0.49445547
O        5.46056290       5.01547798      18.60121750  T      -0.69340700       0.00179584      -0.06136915
H        3.44379996       5.01043625      18.44466163  T       0.18711261       0.01499491      -0.19864289
C        7.54925906       0.58541671      17.25697294  T      -0.00792822      -0.21548315      -0.51936945
O        7.56686676       0.97299976      18.34119622  T       0.00558840       0.10539443       0.54299684
109
Lattice="12.51515363 0.0 0.0 0.0 12.51515363 0.0 0.0 0.0 25.30973" Properties=species:S:1:pos:R:3:move_mask:L:1:forces:R:3 energy=-453.33903334 stress="0.00726529100405158 -2.359502036743239e-05 0.00018513295360151594 -2.359502036743239e-05 0.008636696991053735 0.0003435158226969929 0.00018513295360151594 0.0003435158226969929 0.003154918393127011" free_energy=-453.34115603 pbc="T T T"
Cu       1.25151999       1.25151999      10.00000011  F       0.00416677      -0.01087141      -0.06827897
Cu       3.75454997       1.25151999      10.00000011  F       0.00352772       0.01002155      -0.06524944
Cu       6.25757994       1.25151999      10.00000011  F      -0.00331056       0.02818533      -0.04626962
Cu       8.76061004       1.25151999      10.00000011  F       0.00448089       0.01157797      -0.04235376
Cu      11.26364002       1.25151999      10.00000011  F      -0.01151319      -0.00548992      -0.07390165
Cu       1.25151999       3.75454997      10.00000011  F       0.00332241       0.01014766      -0.07771101
Cu       3.75454997       3.75454997      10.00000011  F       0.00569219      -0.00232851      -0.05517848
Cu       6.25757994       3.75454997      10.00000011  F      -0.01309848      -0.02308667      -0.08403642
Cu       8.76061004       3.75454997      10.00000011  F       0.00615719      -0.02131188      -0.07516647
Cu      11.26364002       3.75454997      10.00000011  F      -0.00098533       0.00963608      -0.05137765
Cu       1.25151999       6.25757994      10.00000011  F       0.00564842       0.00080490      -0.08414886
Cu       3.75454997       6.25757994      10.00000011  F       0.01087859       0.01897037      -0.06498488
Cu       6.25757994       6.25757994      10.00000011  F      -0.01638857       0.02360209      -0.08900926
Cu       8.76061004       6.25757994      10.00000011  F       0.00479489       0.01940885      -0.07431909
Cu      11.26364002       6.25757994      10.00000011  F      -0.00346330       0.00290637      -0.05334779
Cu       1.25151999       8.76061004      10.00000011  F       0.00629424      -0.00246294      -0.07843075
Cu       3.75454997       8.76061004      10.00000011  F      -0.01341893      -0.02774812      -0.06916787
Cu       6.25757994       8.76061004      10.00000011  F      -0.00124395      -0.02974633      -0.05508665
Cu       8.76061004       8.76061004      10.00000011  F       0.00028884      -0.01379922      -0.05176456
Cu      11.26364002       8.76061004      10.00000011  F       0.00577162      -0.01279703      -0.06744179
Cu       1.25151999      11.26364002      10.00000011  F       0.00451681      -0.00066391      -0.00281821
Cu       3.75454997      11.26364002      10.00000011  F      -0.00462251       0.00148829      -0.07295664
Cu       6.25757994      11.26364002      10.00000011  F      -0.00145673       0.00154021      -0.06169031
Cu       8.76061004      11.26364002      10.00000011  F      -0.00129671       0.00321039      -0.05818193
Cu      11.26364002      11.26364002      10.00000011  F       0.00138525       0.00747605      -0.06726808
Cu       0.00000000       0.00000000      11.76991004  F      -0.00589528       0.04980620       0.16336960
Cu       2.50302998       0.00000000      11.76991004  F       0.03965062       0.03727256       0.13142053
Cu       5.00605995       0.00000000      11.76991004  F       0.05911934       0.08073999       0.12884665
Cu       7.50909005       0.00000000      11.76991004  F       0.01579866       0.08413192       0.12282280
Cu      10.01212003       0.00000000      11.76991004  F      -0.01015300       0.07239339       0.12454794
Cu       0.00000000       2.50302998      11.76991004  F      -0.08494984      -0.00467693       0.09160666
Cu       2.50302998       2.50302998      11.76991004  F       0.06377504       0.02513266       0.13145553
Cu       5.00605995       2.50302998      11.76991004  F      -0.01654325      -0.02266528       0.14547160
Cu       7.50909005       2.50302998      11.76991004  F      -0.01061771      -0.02690024       0.11074353
Cu      10.01212003       2.50302998      11.76991004  F       0.05628795      -0.09407331       0.02795147
Cu       0.00000000       5.00605995      11.76991004  F      -0.11900707       0.00584796       0.06220426
Cu       2.50302998       5.00605995      11.76991004  F       0.03900087       0.00726100       0.12484014
Cu       5.00605995       5.00605995      11.76991004  F      -0.04764937       0.03375356       0.25151218
Cu       7.50909005       5.00605995      11.76991004  F      -0.08208684       0.05412173       0.12971555
Cu      10.01212003       5.00605995      11.76991004  F       0.05257054       0.05061040       0.01813309
Cu       0.00000000       7.50909005      11.76991004  F      -0.09877903      -0.00110818       0.11347373
Cu       2.50302998       7.50909005      11.76991004  F       0.09676747      -0.02455709       0.13564663
Cu       5.00605995       7.50909005      11.76991004  F      -0.02942440       0.00870576       0.14248556
Cu       7.50909005       7.50909005      11.76991004  F      -0.02926263       0.03045069       0.12208139
Cu      10.01212003       7.50909005      11.76991004  F       0.08003485       0.07706539       0.03742461
Cu       0.00000000      10.01212003      11.76991004  F       0.01390858      -0.05086559       0.16784758
Cu       2.50302998      10.01212003      11.76991004  F       0.02922121      -0.06071830       0.13735405
Cu       5.00605995      10.01212003      11.76991004  F       0.08557955      -0.04127588       0.17957830
Cu       7.50909005      10.01212003      11.76991004  F       0.02365906      -0.01265962       0.12500043
Cu      10.01212003      10.01212003      11.76991004  F      -0.03743315      -0.00462984       0.15933311
Cu       1.27325256       1.24391403      13.59475498  T      -0.00557082      -0.01744280      -0.00083712
Cu       3.78569718       1.27498428      13.60799349  T      -0.00263841      -0.00793319      -0.01320121
Cu       6.30159999       1.27897461      13.62205710  T      -0.00530798      -0.01275655      -0.01774293
Cu       8.77855214       1.28291025      13.62430080  T       0.00201481      -0.01632694      -0.02285808
Cu      11.26963628       1.27664942      13.62025378  T       0.00766792      -0.01308039      -0.01253871
Cu       1.22424184       3.74450593      13.56585431  T      -0.00513996       0.00967257      -0.00915179
Cu       3.75787324       3.79009501      13.62502972  T      -0.01274250       0.00153803      -0.01073487
Cu       6.24867867       3.79283482      13.58351620  T      -0.00226947      -0.00266773      -0.00222461
Cu       8.74713222       3.78079162      13.54556704  T      -0.00183588      -0.00938891      -0.03703970
Cu      11.21397576       3.76398514      13.60574675  T       0.01390203      -0.00256754      -0.02155639
Cu       1.22785834       6.25521658      13.56482091  T      -0.00140420       0.00301415      -0.00949104
Cu       3.77007940       6.23430601      13.62728811  T      -0.01489300      -0.00214164      -0.01734359
Cu       6.24915474       6.24000566      13.60507933  T      -0.00387459      -0.00246755      -0.02991677
Cu       8.73686141       6.25918339      13.55626268  T       0.00969837      -0.00189425      -0.03927694
Cu      11.21089165       6.26288800      13.61470791  T       0.01799869       0.00368860      -0.02738282
Cu       1.28057830       8.75398002      13.59870305  T      -0.00698035       0.01908797      -0.00249897
Cu       3.79006234       8.73654178      13.61870938  T      -0.01009455       0.01017939      -0.02117743
Cu       6.29053948       8.74404974      13.60935769  T      -0.00087599       0.00166224      -0.00746143
Cu       8.78736319       8.75031608      13.61000157  T       0.00462717       0.00775250      -0.00825292
Cu      11.27625354       8.74938333      13.62002473  T       0.01008579       0.01016528      -0.01217994
Cu       1.24935337      11.25604545      13.61131033  T      -0.01392352      -0.00090466      -0.01819980
Cu       3.74484960      11.26250902      13.58185866  T      -0.01238775       0.00234306       0.00035320
Cu       6.27155261      11.29207019      13.59781620  T      -0.00690792       0.00370886      -0.00793551
Cu       8.75376438      11.29632847      13.60125528  T      -0.00772471      -0.00527466      -0.00274118
Cu      11.26964829      11.27018907      13.58803399  T       0.01683372      -0.00522281       0.00341502
Cu       0.01018333       0.00192120      15.40295777  T      -0.00592222       0.01681770      -0.08878704
Cu       2.50110640      12.51440960      15.39612136  T       0.01551879       0.01204472      -0.08141353
Cu       4.97846792      12.51097107      15.37030392  T      -0.00133069      -0.01340085      -0.04859578
Cu       7.51819069      12.50933471      15.49565820  T      -0.00478482      -0.02739142      -0.05308894
Cu      10.05236062       0.01028420      15.38224657  T      -0.00572251       0.00233213      -0.04162820
Cu       0.07211907       2.51189120      15.38285932  T      -0.00353559      -0.00484722      -0.04310224
Cu       2.54330174       2.52034744      15.38661983  T       0.01752201       0.01258829      -0.03889609
Cu       5.01118403       2.48005353      15.41860121  T      -0.01624006      -0.01801280      -0.01962732
Cu       7.60983040       2.57073520      15.40091097  T       0.05308184       0.05462130       0.01701472
Cu      10.11295099       2.51550758      15.49067269  T       0.01786983      -0.02816564      -0.02297379
Cu      12.35514401       5.00050072      15.36802402  T      -0.01813510       0.00762520      -0.04357373
Cu       2.20029179       4.99530843      15.41579310  T      -0.00204054      -0.00682639      -0.04376888
Pd       4.57262188       5.04556028      15.93630668  T       0.08886393       0.00820444       0.06234930
Y        7.47580612       5.06514086      17.22945823  T       0.15178201      -0.04478791       0.94416229
Cu       9.89725232       5.03077075      15.45458456  T       0.00634237      -0.01887761      -0.01568794
Cu       0.08996280       7.49374923      15.38339867  T       0.00315551      -0.00887211      -0.04431701
Cu       2.56642035       7.45612955      15.39983303  T       0.00933680      -0.01278046      -0.03623412
Cu       5.03163617       7.57976137      15.46359179  T      -0.00589331       0.01891755      -0.01937464
Cu       7.62304853       7.53416917      15.43552102  T       0.06664216      -0.05138414       0.03255510
Cu      10.12916299       7.56787160      15.49978875  T       0.00620277      -0.00342877      -0.02404528
Cu      12.51061151       9.99865109      15.40365581  T       0.00006318      -0.00721779      -0.08679309
Cu       2.50803629       9.98601679      15.39694950  T       0.00800246      -0.00897525      -0.07570137
Cu       5.00869064      10.06070473      15.36300307  T       0.01282864       0.00866543      -0.04779989
Cu       7.51370777      10.03271972      15.35492724  T      -0.00573693      -0.02504890      -0.06348263
Cu      10.01373636      10.04979314      15.37563187  T      -0.01069481      -0.00689317      -0.05853847
O        6.25847928       3.53620384      16.42623142  T      -0.51404669      -0.53308370      -0.35272348
O        6.30266679       6.70133062      16.58128364  T      -0.52071621       0.53775425      -0.36005970
O        9.03640986       6.44006240      16.61757551  T       0.48268555       0.57307897      -0.35591152
O        8.99446983       3.62480174      16.61948741  T       0.48554672      -0.58382597      -0.36611475
C        4.43113069       5.02631948      17.91574345  T      -0.30785095      -0.00440576       0.04418883
O        5.45387255       5.01549537      18.60062525  T      -0.13201609      -0.00199901       0.28613508
H        3.44560527       5.01058092      18.44274493  T       0.08253256       0.01302532      -0.14415595
C        7.54918260       0.58333757      17.25196187  T       0.00901507       0.14767011       0.49603918
O        7.56692057       0.97401674      18.34643533  T      -0.01028235      -0.24769668      -0.45280042
109
Lattice="12.51515363 0.0 0.0 0.0 12.51515363 0.0 0.0 0.0 25.30973" Properties=species:S:1:pos:R:3:move_mask:L:1:forces:R:3 energy=-453.37555241 stress="0.007354717880052592 -2.619666861637431e-05 0.00021256720113038864 -2.619666861637431e-05 0.008713945353308704 0.00025408334806229627 0.00021256720113038864 0.00025408334806229627 0.002866426279336706" free_energy=-453.37766193 pbc="T T T"
Cu       1.25151999       1.25151999      10.00000011  F       0.00433098      -0.01075471      -0.06835387
Cu       3.75454997       1.25151999      10.00000011  F       0.00357345       0.01013781      -0.06538648
Cu       6.25757994       1.25151999      10.00000011  F      -0.00337049       0.02828717      -0.04647770
Cu       8.76061004       1.25151999      10.00000011  F       0.00471724       0.01164682      -0.04250357
Cu      11.26364002       1.25151999      10.00000011  F      -0.01166168      -0.00538479      -0.07396775
Cu       1.25151999       3.75454997      10.00000011  F       0.00349229       0.01006862      -0.07785968
Cu       3.75454997       3.75454997      10.00000011  F       0.00594995      -0.00254090      -0.05520867
Cu       6.25757994       3.75454997      10.00000011  F      -0.01316986      -0.02310360      -0.08402655
Cu       8.76061004       3.75454997      10.00000011  F       0.00632685      -0.02128139      -0.07514667
Cu      11.26364002       3.75454997      10.00000011  F      -0.00122033       0.00957372      -0.05165741
Cu       1.25151999       6.25757994      10.00000011  F       0.00579305       0.00081757      -0.08436650
Cu       3.75454997       6.25757994      10.00000011  F       0.01119900       0.01921607      -0.06489070
Cu       6.25757994       6.25757994      10.00000011  F      -0.01650909       0.02374632      -0.08899221
Cu       8.76061004       6.25757994      10.00000011  F       0.00499665       0.01948201      -0.07440526
Cu      11.26364002       6.25757994      10.00000011  F      -0.00373188       0.00299110      -0.05360787
Cu       1.25151999       8.76061004      10.00000011  F       0.00642145      -0.00253044      -0.07828028
Cu       3.75454997       8.76061004      10.00000011  F      -0.01317558      -0.02799889      -0.06909407
Cu       6.25757994       8.76061004      10.00000011  F      -0.00138271      -0.03005076      -0.05521742
Cu       8.76061004       8.76061004      10.00000011  F       0.00053039      -0.01408672      -0.05182043
Cu      11.26364002       8.76061004      10.00000011  F       0.00554619      -0.01294482      -0.06741779
Cu       1.25151999      11.26364002      10.00000011  F       0.00456725      -0.00077646      -0.00256529
Cu       3.75454997      11.26364002      10.00000011  F      -0.00455392       0.00138213      -0.07282296
Cu       6.25757994      11.26364002      10.00000011  F      -0.00141723       0.00143836      -0.06166096
Cu       8.76061004      11.26364002      10.00000011  F      -0.00131478       0.00314538      -0.05825822
Cu      11.26364002      11.26364002      10.00000011  F       0.00141614       0.00736592      -0.06738570
Cu       0.00000000       0.00000000      11.76991004  F      -0.00621892       0.04991449       0.16236002
Cu       2.50302998       0.00000000      11.76991004  F       0.03998670       0.03715737       0.13066787
Cu       5.00605995       0.00000000      11.76991004  F       0.05902702       0.08053275       0.12820891
Cu       7.50909005       0.00000000      11.76991004  F       0.01589725       0.08363096       0.12178756
Cu      10.01212003       0.00000000      11.76991004  F      -0.01003128       0.07166651       0.12406724
Cu       0.00000000       2.50302998      11.76991004  F      -0.08444464      -0.00491393       0.09099584
Cu       2.50302998       2.50302998      11.76991004  F       0.06373103       0.02517505       0.13110460
Cu       5.00605995       2.50302998      11.76991004  F      -0.01649640      -0.02247063       0.14503735
Cu       7.50909005       2.50302998      11.76991004  F      -0.01131219      -0.02712628       0.11022771
Cu      10.01212003       2.50302998      11.76991004  F       0.05646746      -0.09446949       0.02712659
Cu       0.00000000       5.00605995      11.76991004  F      -0.11857797       0.00603323       0.06113845
Cu       2.50302998       5.00605995      11.76991004  F       0.03875243       0.00743179       0.12412081
Cu       5.00605995       5.00605995      11.76991004  F      -0.04760663       0.03340037       0.25095572
Cu       7.50909005       5.00605995      11.76991004  F      -0.08278549       0.05392565       0.12875546
Cu      10.01212003       5.00605995      11.76991004  F       0.05308293       0.05045473       0.01691355
Cu       0.00000000       7.50909005      11.76991004  F      -0.09822254      -0.00085383       0.11256973
Cu       2.50302998       7.50909005      11.76991004  F       0.09652264      -0.02455739       0.13495284
Cu       5.00605995       7.50909005      11.76991004  F      -0.02950837       0.00888687       0.14176473
Cu       7.50909005       7.50909005      11.76991004  F      -0.02961084       0.03075840       0.12162131
Cu      10.01212003       7.50909005      11.76991004  F       0.08030405       0.07768261       0.03666247
Cu       0.00000000      10.01212003      11.76991004  F       0.01369340      -0.05130529       0.16652163
Cu       2.50302998      10.01212003      11.76991004  F       0.02951829      -0.06085773       0.13640007
Cu       5.00605995      10.01212003      11.76991004  F       0.08547345      -0.04123071       0.17914969