109
Lattice="12.51515363 0.0 0.0 0.0 12.51515363 0.0 0.0 0.0 25.30973" Properties=species:S:1:pos:R:3:move_mask:L:1:forces:R:3 energy=-453.09185269 stress="0.008253709334116382 -4.307800345104125e-05 1.0795882161458137e-05 -4.307800345104125e-05 0.007755775055433889 0.0001517867923191705 1.0795882161458137e-05 0.0001517867923191705 0.0021592182067122073" free_energy=-453.08942747 pbc="T T T"
Cu       1.25151999       1.25151999      10.00000011  F      -0.00299914      -0.02455945      -0.07041305
Cu       3.75454997       1.25151999      10.00000011  F       0.00247983      -0.00621405      -0.06953645
Cu       6.25757994       1.25151999      10.00000011  F      -0.00865259       0.00933577      -0.06234997
Cu       8.76061004       1.25151999      10.00000011  F       0.00368706       0.01658475      -0.04213524
Cu      11.26364002       1.25151999      10.00000011  F       0.00600987      -0.01373300      -0.07368589
Cu       1.25151999       3.75454997      10.00000011  F       0.00384458       0.01236172      -0.05404976
Cu       3.75454997       3.75454997      10.00000011  F       0.00418143      -0.00659625      -0.04056892
Cu       6.25757994       3.75454997      10.00000011  F      -0.01756719      -0.02085845      -0.07019168
Cu       8.76061004       3.75454997      10.00000011  F       0.01415684      -0.02097685      -0.08313259
Cu      11.26364002       3.75454997      10.00000011  F      -0.00341776       0.00526577      -0.04949013
Cu       1.25151999       6.25757994      10.00000011  F       0.00540188      -0.02042472      -0.06719783
Cu       3.75454997       6.25757994      10.00000011  F       0.00682019       0.00552325      -0.06030149
Cu       6.25757994       6.25757994      10.00000011  F      -0.00849616       0.03078546      -0.08158255
Cu       8.76061004       6.25757994      10.00000011  F       0.01090290       0.03204085      -0.08273647
Cu      11.26364002       6.25757994      10.00000011  F      -0.01455343       0.00612752      -0.05951216
Cu       1.25151999       8.76061004      10.00000011  F       0.00511448       0.00935612      -0.07071234
Cu       3.75454997       8.76061004      10.00000011  F       0.00101293      -0.00544060      -0.06630884
Cu       6.25757994       8.76061004      10.00000011  F       0.00243912      -0.02221861      -0.05102937
Cu       8.76061004       8.76061004      10.00000011  F       0.00732770      -0.02361026      -0.05500232
Cu      11.26364002       8.76061004      10.00000011  F      -0.01851580      -0.00900911      -0.05769193
Cu       1.25151999      11.26364002      10.00000011  F      -0.00001549       0.02223812      -0.02794208
Cu       3.75454997      11.26364002      10.00000011  F      -0.00971164       0.01301099      -0.08247896
Cu       6.25757994      11.26364002      10.00000011  F      -0.00644244       0.00387821      -0.07590689
Cu       8.76061004      11.26364002      10.00000011  F      -0.00029901      -0.00354972      -0.05823674
Cu      11.26364002      11.26364002      10.00000011  F       0.01609999       0.00965861      -0.07317816
Cu       0.00000000       0.00000000      11.76991004  F      -0.02548957       0.02730044       0.03316167
Cu       2.50302998       0.00000000      11.76991004  F       0.03846554      -0.00737569       0.01804743
Cu       5.00605995       0.00000000      11.76991004  F       0.03244951       0.10105817       0.06344917
Cu       7.50909005       0.00000000      11.76991004  F       0.01884338       0.08272564       0.08227225
Cu      10.01212003       0.00000000      11.76991004  F      -0.04849820       0.10754681       0.09834367
Cu       0.00000000       2.50302998      11.76991004  F      -0.07868521       0.04968298       0.07889011
Cu       2.50302998       2.50302998      11.76991004  F       0.07724136       0.04046485       0.10711253
Cu       5.00605995       2.50302998      11.76991004  F      -0.02926080      -0.03269958       0.05692761
Cu       7.50909005       2.50302998      11.76991004  F      -0.02498287      -0.03130978       0.06444815
Cu      10.01212003       2.50302998      11.76991004  F       0.04515072      -0.05593911       0.03939919
Cu       0.00000000       5.00605995      11.76991004  F      -0.06473630       0.00561162       0.04961818
Cu       2.50302998       5.00605995      11.76991004  F       0.09830846       0.00998991       0.04171731
Cu       5.00605995       5.00605995      11.76991004  F      -0.07537274       0.00148021       0.11565956
Cu       7.50909005       5.00605995      11.76991004  F      -0.03455614       0.00583035       0.07571580
Cu      10.01212003       5.00605995      11.76991004  F       0.02306637      -0.01853707       0.04843872
Cu       0.00000000       7.50909005      11.76991004  F      -0.04054967      -0.05351946       0.09934232
Cu       2.50302998       7.50909005      11.76991004  F       0.07504442      -0.03635828       0.05270393
Cu       5.00605995       7.50909005      11.76991004  F      -0.02626737       0.03946645       0.05913215
Cu       7.50909005       7.50909005      11.76991004  F      -0.01166529       0.03183705       0.06155654
Cu      10.01212003       7.50909005      11.76991004  F       0.02617775       0.07475816       0.00984656
Cu       0.00000000      10.01212003      11.76991004  F      -0.00152422      -0.01160699       0.08427301
Cu       2.50302998      10.01212003      11.76991004  F       0.03674395       0.01223697       0.07029351
Cu       5.00605995      10.01212003      11.76991004  F       0.04057826      -0.06775531       0.07770968
Cu       7.50909005      10.01212003      11.76991004  F       0.00888807      -0.07022138       0.07146811
Cu      10.01212003      10.01212003      11.76991004  F      -0.04474615      -0.10087155       0.08277221
Cu       1.26352415       1.23996938      13.56711372  T      -0.00091259      -0.00137967      -0.00211842
Cu       3.76787222       1.26328774      13.60014975  T       0.00161504      -0.00148783      -0.00221295
Cu       6.27424600       1.28264556      13.61383194  T       0.00081393       0.00070138      -0.00009875
Cu       8.75351833       1.28328208      13.61502656  T      -0.00013777       0.00058702       0.00007604
Cu      11.25894408       1.26575385      13.60081869  T      -0.00078987       0.00095619      -0.00047791
Cu       1.25797719       3.75999706      13.57259100  T      -0.00109496       0.00223357      -0.00196746
Cu       3.75188712       3.75677128      13.61459554  T       0.00177386       0.00228329      -0.00173944
Cu       6.26950626       3.76118150      13.56516335  T       0.00038398       0.00141273       0.00117474
Cu       8.74288158       3.76468286      13.55854511  T       0.00008841       0.00067236       0.00045527
Cu      11.23121050       3.75916243      13.60542405  T      -0.00038355       0.00095276       0.00045353
Cu       1.26352465       6.24699125      13.58050637  T       0.00019948      -0.00033121       0.00175793
Cu       3.75744948       6.25683367      13.61267427  T      -0.00002040      -0.00065878       0.00169519
Cu       6.27375953       6.25966522      13.56224641  T      -0.00043399      -0.00042136       0.00115680
Cu       8.74279723       6.24637375      13.55929302  T      -0.00017137       0.00005081       0.00038023
Cu      11.22514378       6.25785540      13.59178919  T      -0.00031478       0.00015952       0.00057831
Cu       1.25926162       8.77124617      13.56614158  T       0.00021246      -0.00080028       0.00021268
Cu       3.78645335       8.75605027      13.59269325  T       0.00050400      -0.00085301       0.00022776
Cu       6.28231427       8.73893280      13.61470462  T       0.00059698      -0.00069662       0.00011096
Cu       8.75727463       8.72879990      13.61341003  T       0.00016668      -0.00052810       0.00024704
Cu      11.25647810       8.75128375      13.59797261  T      -0.00020959      -0.00062357       0.00017582
Cu       1.25290142      11.27470454      13.60030313  T       0.00050512       0.00007027       0.00088304
Cu       3.73906397      11.27692410      13.57870811  T      -0.00104184       0.00045826       0.00145705
Cu       6.25243221      11.26833808      13.56372601  T      -0.00010511      -0.00012587      -0.00027955
Cu       8.76080878      11.26280851      13.56876037  T      -0.00034326      -0.00020937      -0.00018119
Cu      11.27156612      11.26575308      13.57218200  T      -0.00065715      -0.00034589      -0.00073182
Cu      12.50146656       0.00878902      15.36568869  T      -0.00379313      -0.00058474      -0.00120770
Cu       2.50203189      12.48168786      15.42423895  T      -0.00207960       0.00043632       0.00980213
Cu       5.00445438      12.49639291      15.35525020  T       0.00017176       0.00011788       0.00030077
Cu       7.50456720      12.49861448      15.34598329  T      -0.00054476      -0.00008025       0.00009348
Cu      10.00746264      12.49214127      15.35225504  T      -0.00150629       0.00006176       0.00010899
Cu       0.04319643       2.50748174      15.35435778  T       0.00147981       0.00033312      -0.00018113
Cu       2.50382869       2.44014696      15.37089034  T       0.00318930       0.00300846      -0.01897732
Cu       4.98820496       2.42897919      15.46657909  T       0.00042647       0.00097515      -0.00099819
Cu       7.53040548       2.51762302      15.47919448  T       0.00073708       0.00031155       0.00051516
Cu      10.08689932       2.45069949      15.44807490  T       0.00094855       0.00073989       0.00069673
Cu      12.45895408       5.02843805      15.30494913  T      -0.00090663       0.00097701       0.00024645
Cu       2.41703760       5.08107215      15.47102171  T      -0.00170638      -0.00418972       0.00645625
Pd       5.02643024       5.02133457      15.47066915  T      -0.00456207       0.00016971       0.00251713
Y        7.48474620       5.01498701      17.24921323  T       0.00018996      -0.00119675      -0.00848201
Cu       9.96486130       5.00648046      15.44182770  T      -0.00105002      -0.00020829       0.00038058
Cu       0.05304273       7.51557252      15.34295751  T       0.00000517       0.00013208       0.00028722
Cu       2.51687724       7.54613115      15.34790076  T       0.00062811      -0.00310869       0.00114162
Cu       4.99391249       7.60498554      15.47021762  T       0.00092747      -0.00084335       0.00064550
Cu       7.54263379       7.49839535      15.47639421  T       0.00040797      -0.00069317       0.00078989
Cu      10.09582075       7.55511315      15.44488157  T      -0.00055003      -0.00085149       0.00052318
Cu      12.51427457      10.01090505      15.36283375  T      -0.00004160      -0.00021236       0.00021541
Cu       2.51021205      10.00325667      15.36157282  T       0.00028280      -0.00153641       0.00059536
Cu       5.00499153      10.05501897      15.35344890  T       0.00056112      -0.00038406       0.00039750
Cu       7.50828157      10.03211711      15.34633737  T       0.00037078      -0.00053875       0.00005486
Cu      10.01406037      10.03125432      15.35247347  T       0.00006593      -0.00040682      -0.00006448
O        6.11563420       3.43476389      16.67903589  T       0.00126086       0.00154123      -0.00082858
O        6.12867737       6.60933974      16.68176225  T       0.00074355      -0.00176768      -0.00080277
O        8.98556505       6.44072895      16.54920001  T      -0.00067005      -0.00145838      -0.00070595
O        8.97422357       3.57570329      16.53987793  T      -0.00083833       0.00113334      -0.00020972
C        2.30746906       3.04499833      17.16888243  T      -0.00360105      -0.01323522       0.00081442
O        2.38051150       4.27863004      17.42752939  T      -0.00610409      -0.01046743       0.00704815
H        2.15533498       2.60297311      19.33906852  T      -0.00542856      -0.02695795      -0.00291949
C        2.19173380       2.09857901      18.34205118  T       0.00083945      -0.00036457      -0.02008483
O        2.14703605       0.87967213      18.23159673  T       0.00647137      -0.04569952      -0.03633104
109
Lattice="12.51515363 0.0 0.0 0.0 12.51515363 0.0 0.0 0.0 25.30973" Properties=species:S:1:pos:R:3:move_mask:L:1:forces:R:3 energy=-453.09229119 stress="0.008243339765752747 -4.34156129211694e-05 1.000112583842292e-05 -4.34156129211694e-05 0.007752373557790466 0.000153470114847403 1.000112583842292e-05 0.000153470114847403 0.0021436852500600415" free_energy=-453.08986633 pbc="T T T"
Cu       1.25151999       1.25151999      10.00000011  F      -0.00277826      -0.02443336      -0.06916422
Cu       3.75454997       1.25151999      10.00000011  F       0.00258287      -0.00632748      -0.06948495
Cu       6.25757994       1.25151999      10.00000011  F      -0.00870515       0.00905553      -0.06249032
Cu       8.76061004       1.25151999      10.00000011  F       0.00327909       0.01603763      -0.04222662
Cu      11.26364002       1.25151999      10.00000011  F       0.00576406      -0.01368400      -0.07185942
Cu       1.25151999       3.75454997      10.00000011  F       0.00373094       0.01230636      -0.05406645
Cu       3.75454997       3.75454997      10.00000011  F       0.00407261      -0.00674004      -0.04060686
Cu       6.25757994       3.75454997      10.00000011  F      -0.01763913      -0.02097952      -0.07025282
Cu       8.76061004       3.75454997      10.00000011  F       0.01410293      -0.02111127      -0.08315259
Cu      11.26364002       3.75454997      10.00000011  F      -0.00346370       0.00530319      -0.04946959
Cu       1.25151999       6.25757994      10.00000011  F       0.00533567      -0.02055744      -0.06729360
Cu       3.75454997       6.25757994      10.00000011  F       0.00676956       0.00537280      -0.06036303
Cu       6.25757994       6.25757994      10.00000011  F      -0.00860549       0.03061923      -0.08162971
Cu       8.76061004       6.25757994      10.00000011  F       0.01081696       0.03189088      -0.08283563
Cu      11.26364002       6.25757994      10.00000011  F      -0.01464586       0.00622649      -0.05969094
Cu       1.25151999       8.76061004      10.00000011  F       0.00478850       0.00898240      -0.07105756
Cu       3.75454997       8.76061004      10.00000011  F       0.00094259      -0.00565540      -0.06632445
Cu       6.25757994       8.76061004      10.00000011  F       0.00237669      -0.02229775      -0.05115103
Cu       8.76061004       8.76061004      10.00000011  F       0.00750701      -0.02342114      -0.05564278
Cu      11.26364002       8.76061004      10.00000011  F      -0.01866181      -0.00939972      -0.05976801
Cu       1.25151999      11.26364002      10.00000011  F       0.00006445       0.02185009      -0.02688164
Cu       3.75454997      11.26364002      10.00000011  F      -0.00956245       0.01283992      -0.08230740
Cu       6.25757994      11.26364002      10.00000011  F      -0.00614200       0.00371221      -0.07664301
Cu       8.76061004      11.26364002      10.00000011  F      -0.00069113      -0.00375590      -0.06086640
Cu      11.26364002      11.26364002      10.00000011  F       0.01550038       0.00899669      -0.07229708
Cu       0.00000000       0.00000000      11.76991004  F      -0.02557456       0.02722335       0.03357128
Cu       2.50302998       0.00000000      11.76991004  F       0.03851393      -0.00749906       0.01818181
Cu       5.00605995       0.00000000      11.76991004  F       0.03236411       0.10082458       0.06335746
Cu       7.50909005       0.00000000      11.76991004  F       0.01889980       0.08243194       0.08199360
Cu      10.01212003       0.00000000      11.76991004  F      -0.04884595       0.10733580       0.09833326
Cu       0.00000000       2.50302998      11.76991004  F      -0.07876377       0.04966470       0.07902824
Cu       2.50302998       2.50302998      11.76991004  F       0.07716615       0.04033401       0.10717823
Cu       5.00605995       2.50302998      11.76991004  F      -0.02931321      -0.03283901       0.05691517
Cu       7.50909005       2.50302998      11.76991004  F      -0.02501436      -0.03140810       0.06443966
Cu      10.01212003       2.50302998      11.76991004  F       0.04501634      -0.05595919       0.03949253
Cu       0.00000000       5.00605995      11.76991004  F      -0.06487318       0.00543472       0.04954339
Cu       2.50302998       5.00605995      11.76991004  F       0.09824492       0.00987472       0.04166323
Cu       5.00605995       5.00605995      11.76991004  F      -0.07540064       0.00139104       0.11554258
Cu       7.50909005       5.00605995      11.76991004  F      -0.03462997       0.00569479       0.07568609
Cu      10.01212003       5.00605995      11.76991004  F       0.02296152      -0.01876965       0.04839161
Cu       0.00000000       7.50909005      11.76991004  F      -0.04071736      -0.05359866       0.09915854
Cu       2.50302998       7.50909005      11.76991004  F       0.07500776      -0.03653043       0.05267280
Cu       5.00605995       7.50909005      11.76991004  F      -0.02631471       0.03929457       0.05910624
Cu       7.50909005       7.50909005      11.76991004  F      -0.01180917       0.03163162       0.06154921
Cu      10.01212003       7.50909005      11.76991004  F       0.02616630       0.07468236       0.00962753
Cu       0.00000000      10.01212003      11.76991004  F      -0.00164992      -0.01204050       0.08430856
Cu       2.50302998      10.01212003      11.76991004  F       0.03680539       0.01197031       0.07037208
Cu       5.00605995      10.01212003      11.76991004  F       0.04047390      -0.06792475       0.07768349
Cu       7.50909005      10.01212003      11.76991004  F       0.00892910      -0.07026589       0.07115322
Cu      10.01212003      10.01212003      11.76991004  F      -0.04502028      -0.10113226       0.08248478
Cu       1.26351539       1.23995612      13.56709322  T      -0.00033686      -0.00047079      -0.00038450
Cu       3.76788774       1.26327335      13.60012849  T       0.00026824      -0.00060156      -0.00055866
Cu       6.27425388       1.28265231      13.61383093  T       0.00000109      -0.00001926      -0.00002696
Cu       8.75351708       1.28328771      13.61502732  T      -0.00006040      -0.00008505      -0.00008197
Cu      11.25893645       1.26576311      13.60081413  T      -0.00013719       0.00003522      -0.00002029
Cu       1.25796667       3.76001859      13.57257202  T      -0.00033628       0.00020152      -0.00047349
Cu       3.75190427       3.75679331      13.61457883  T       0.00020261       0.00017747      -0.00055044
Cu       6.26950989       3.76119514      13.56517474  T       0.00000551      -0.00000344       0.00011400
Cu       8.74288245       3.76468937      13.55854942  T      -0.00006814      -0.00010413      -0.00008582
Cu      11.23120675       3.75917156      13.60542835  T      -0.00010769      -0.00006900       0.00000344
Cu       1.26352653       6.24698799      13.58052358  T       0.00003497      -0.00027685       0.00027475
Cu       3.75744935       6.25682728      13.61269047  T      -0.00023210      -0.00024435       0.00014254
Cu       6.27375528       6.25966121      13.56225754  T      -0.00014338      -0.00024385       0.00005263
Cu       8.74279560       6.24637425      13.55929681  T      -0.00013251      -0.00017657      -0.00008635
Cu      11.22514078       6.25785690      13.59179476  T      -0.00012045      -0.00014788      -0.00001680
Cu       1.25926374       8.77123841      13.56614360  T      -0.00002340      -0.00031110       0.00001251
Cu       3.78645823       8.75604201      13.59269528  T      -0.00001052      -0.00028598      -0.00001884
Cu       6.28232002       8.73892604      13.61470563  T       0.00000252      -0.00026597      -0.00008861
Cu       8.75727626       8.72879490      13.61341256  T      -0.00006968      -0.00024549      -0.00012492
Cu      11.25647609       8.75127774      13.59797413  T      -0.00006927      -0.00031736      -0.00002245
Cu       1.25290630      11.27470529      13.60031174  T       0.00002810      -0.00006890       0.00031920
Cu       3.73905396      11.27692861      13.57872203  T      -0.00029119      -0.00002757       0.00035981
Cu       6.25243121      11.26833683      13.56372323  T      -0.00014555      -0.00018458      -0.00013183
Cu       8.76080553      11.26280651      13.56875860  T      -0.00018074      -0.00013548      -0.00011986
Cu      11.27155973      11.26574970      13.57217491  T      -0.00014510      -0.00012086      -0.00006079
Cu      12.50142989       0.00878339      15.36567679  T      -0.00065888      -0.00025556      -0.00016733
Cu       2.50201187      12.48169199      15.42433336  T      -0.00055206       0.00015235       0.00208568
Cu       5.00445601      12.49639404      15.35525298  T      -0.00006892      -0.00011423      -0.00000612
Cu       7.50456194      12.49861373      15.34598405  T      -0.00018412      -0.00019441      -0.00000789
Cu      10.00744812      12.49214189      15.35225606  T      -0.00037881      -0.00018515      -0.00002729
Cu       0.04321070       2.50748499      15.35435626  T       0.00035334      -0.00012086      -0.00011143
Cu       2.50385948       2.44017600      15.37070735  T       0.00073320       0.00098747      -0.00530131
Cu       4.98820909       2.42898857      15.46656948  T       0.00019774       0.00007919      -0.00011223
Cu       7.53041262       2.51762602      15.47919928  T       0.00000596      -0.00023459      -0.00006488
Cu      10.08690846       2.45070662      15.44808173  T       0.00009127      -0.00003352       0.00007043
Cu      12.45894532       5.02844743      15.30495166  T      -0.00014850      -0.00004317       0.00002382
Cu       2.41702108       5.08103173      15.47108397  T      -0.00061172      -0.00127329       0.00171807
Pd       5.02638619       5.02133620      15.47069344  T       0.00223222      -0.00036875      -0.00123193
Y        7.48474795       5.01497550      17.24913148  T      -0.00013958      -0.00093586      -0.00255428
Cu       9.96485129       5.00647833      15.44183149  T      -0.00008053      -0.00019425      -0.00013210
Cu       0.05304273       7.51557378      15.34296030  T      -0.00007182      -0.00009764       0.00003453
Cu       2.51688325       7.54610111      15.34791189  T      -0.00005584      -0.00068120       0.00012520
Cu       4.99392138       7.60497740      15.47022369  T       0.00004632      -0.00025100       0.00010005
Cu       7.54263767       7.49838872      15.47640180  T      -0.00000478      -0.00009504      -0.00004607
Cu      10.09581537       7.55510489      15.44488663  T      -0.00010691      -0.00023290       0.00006238
Cu      12.51427407      10.01090305      15.36283578  T      -0.00008459      -0.00019325       0.00003441
Cu       2.51021480      10.00324178      15.36157864  T      -0.00005705      -0.00044004       0.00009435
Cu       5.00499691      10.05501534      15.35345270  T       0.00002602      -0.00014929       0.00001746
Cu       7.50828508      10.03211198      15.34633813  T      -0.00001027      -0.00015830      -0.00000288
Cu      10.01406100      10.03125044      15.35247271  T      -0.00005902      -0.00018997      -0.00000360
O        6.11564646       3.43477878      16.67902779  T      -0.00067074      -0.00071036      -0.00102738
O        6.12868450       6.60932272      16.68175441  T      -0.00056959      -0.00006747      -0.00050839
O        8.98555854       6.44071494      16.54919318  T       0.00063311       0.00017974      -0.00052245
O        8.97421543       3.57571418      16.53987591  T       0.00056617      -0.00085015      -0.00061816
C        2.30743427       3.04487067      17.16889027  T      -0.00318438      -0.00883970      -0.00165756
O        2.38045268       4.27852904      17.42759747  T      -0.00501827      -0.00883099       0.00377358
H        2.15528254       2.60271292      19.33904017  T      -0.00551977      -0.02727286      -0.00419338
C        2.19174194       2.09857550      18.34185731  T      -0.00064808      -0.03061399      -0.01706280
O        2.14709851       0.87923122      18.23124619  T       0.00670483      -0.00843059      -0.02511523
109
Lattice="12.51515363 0.0 0.0 0.0 12.51515363 0.0 0.0 0.0 25.30973" Properties=species:S:1:pos:R:3:move_mask:L:1:forces:R:3 energy=-453.09247727999997 stress="0.008267078896324389 -4.325696000069858e-05 1.0215197118422465e-05 -4.325696000069858e-05 0.0077751638416617705 0.0001532046010491879 1.0215197118422465e-05 0.0001532046010491879 0.0021761414532806547" free_energy=-453.09005506 pbc="T T T"
Cu       1.25151999       1.25151999      10.00000011  F      -0.00265411      -0.02448002      -0.06955659
Cu       3.75454997       1.25151999      10.00000011  F       0.00292576      -0.00637658      -0.06966161
Cu       6.25757994       1.25151999      10.00000011  F      -0.00855149       0.00886254      -0.06249648
Cu       8.76061004       1.25151999      10.00000011  F       0.00309375       0.01582829      -0.04229727
Cu      11.26364002       1.25151999      10.00000011  F       0.00552944      -0.01386733      -0.07220014
Cu       1.25151999       3.75454997      10.00000011  F       0.00383351       0.01256060      -0.05425436
Cu       3.75454997       3.75454997      10.00000011  F       0.00422022      -0.00668996      -0.04073538
Cu       6.25757994       3.75454997      10.00000011  F      -0.01757988      -0.02107647      -0.07034363
Cu       8.76061004       3.75454997      10.00000011  F       0.01404955      -0.02111730      -0.08329511
Cu      11.26364002       3.75454997      10.00000011  F      -0.00351597       0.00555236      -0.04966867
Cu       1.25151999       6.25757994      10.00000011  F       0.00527457      -0.02046057      -0.06729683
Cu       3.75454997       6.25757994      10.00000011  F       0.00677610       0.00537887      -0.06045118
Cu       6.25757994       6.25757994      10.00000011  F      -0.00848871       0.03069380      -0.08173666
Cu       8.76061004       6.25757994      10.00000011  F       0.01094557       0.03210242      -0.08286599
Cu      11.26364002       6.25757994      10.00000011  F      -0.01463314       0.00642484      -0.05964208
Cu       1.25151999       8.76061004      10.00000011  F       0.00469527       0.00875969      -0.07110044
Cu       3.75454997       8.76061004      10.00000011  F       0.00104694      -0.00576586      -0.06642355
Cu       6.25757994       8.76061004      10.00000011  F       0.00263298      -0.02223685      -0.05116818
Cu       8.76061004       8.76061004      10.00000011  F       0.00759183      -0.02341330      -0.05551044
Cu      11.26364002       8.76061004      10.00000011  F      -0.01880473      -0.00953340      -0.05961520
Cu       1.25151999      11.26364002      10.00000011  F       0.00002167       0.02148994      -0.02716330
Cu       3.75454997      11.26364002      10.00000011  F      -0.00924491       0.01265722      -0.08249994
Cu       6.25757994      11.26364002      10.00000011  F      -0.00591286       0.00358418      -0.07657735
Cu       8.76061004      11.26364002      10.00000011  F      -0.00074945      -0.00403352      -0.06073543
Cu      11.26364002      11.26364002      10.00000011  F       0.01527684       0.00859211      -0.07240077
Cu       0.00000000       0.00000000      11.76991004  F      -0.02570844       0.02693006       0.03359647
Cu       2.50302998       0.00000000      11.76991004  F       0.03875702      -0.00768445       0.01819665
Cu       5.00605995       0.00000000      11.76991004  F       0.03268416       0.10069201       0.06326876
Cu       7.50909005       0.00000000      11.76991004  F       0.01887593       0.08226894       0.08191557
Cu      10.01212003       0.00000000      11.76991004  F      -0.04904789       0.10706978       0.09833691
Cu       0.00000000       2.50302998      11.76991004  F      -0.07879378       0.04977752       0.07909538
Cu       2.50302998       2.50302998      11.76991004  F       0.07735475       0.04041326       0.10711180
Cu       5.00605995       2.50302998      11.76991004  F      -0.02909389      -0.03291679       0.05680746
Cu       7.50909005       2.50302998      11.76991004  F      -0.02503388      -0.03157822       0.06442395
Cu      10.01212003       2.50302998      11.76991004  F       0.04484233      -0.05600953       0.03959144
Cu       0.00000000       5.00605995      11.76991004  F      -0.06487627       0.00569031       0.04951415
Cu       2.50302998       5.00605995      11.76991004  F       0.09828572       0.01001242       0.04155129
Cu       5.00605995       5.00605995      11.76991004  F      -0.07533551       0.00137916       0.11551273
Cu       7.50909005       5.00605995      11.76991004  F      -0.03456245       0.00570238       0.07573723
Cu      10.01212003       5.00605995      11.76991004  F       0.02298649      -0.01857450       0.04844663
Cu       0.00000000       7.50909005      11.76991004  F      -0.04075803      -0.05367839       0.09908644
Cu       2.50302998       7.50909005      11.76991004  F       0.07495786      -0.03662288       0.05262757
Cu       5.00605995       7.50909005      11.76991004  F      -0.02623376       0.03929128       0.05911671
Cu       7.50909005       7.50909005      11.76991004  F      -0.01163257       0.03173808       0.06151657
Cu      10.01212003       7.50909005      11.76991004  F       0.02619827       0.07472665       0.00956709
Cu       0.00000000      10.01212003      11.76991004  F      -0.00179408      -0.01234954       0.08426101
Cu       2.50302998      10.01212003      11.76991004  F       0.03686729       0.01171950       0.07037765
Cu       5.00605995      10.01212003      11.76991004  F       0.04071985      -0.06800352       0.07762485