109
Lattice="12.51515363 0.0 0.0 0.0 12.51515363 0.0 0.0 0.0 25.30973" Properties=species:S:1:pos:R:3:move_mask:L:1:forces:R:3 energy=-453.17996376 stress="0.008598301249160258 2.3120553326701e-05 -2.0627507336549447e-05 2.3120553326701e-05 0.008758131830055974 0.00021165831257147756 -2.0627507336549447e-05 0.00021165831257147756 0.0035241935044468724" free_energy=-453.18149023 pbc="T T T"
Cu       1.25151999       1.25151999      10.00000011  F      -0.00171474      -0.01945910      -0.07367798
Cu       3.75454997       1.25151999      10.00000011  F      -0.00151990       0.00455445      -0.05548874
Cu       6.25757994       1.25151999      10.00000011  F      -0.00729682       0.01155726      -0.05349479
Cu       8.76061004       1.25151999      10.00000011  F       0.00638957       0.01125830      -0.04489381
Cu      11.26364002       1.25151999      10.00000011  F       0.00026989      -0.00174054      -0.06443165
Cu       1.25151999       3.75454997      10.00000011  F      -0.00345874       0.00339058      -0.05425543
Cu       3.75454997       3.75454997      10.00000011  F       0.01075238      -0.01634397      -0.05496216
Cu       6.25757994       3.75454997      10.00000011  F      -0.01986794      -0.01721430      -0.07502514
Cu       8.76061004       3.75454997      10.00000011  F       0.02130016      -0.01732749      -0.07082582
Cu      11.26364002       3.75454997      10.00000011  F      -0.00644580      -0.00091349      -0.05158456
Cu       1.25151999       6.25757994      10.00000011  F      -0.00080810      -0.00929124      -0.06732879
Cu       3.75454997       6.25757994      10.00000011  F       0.00797796       0.00632346      -0.05548855
Cu       6.25757994       6.25757994      10.00000011  F       0.00446697       0.03208068      -0.07109495
Cu       8.76061004       6.25757994      10.00000011  F      -0.00317511       0.03549464      -0.06457000
Cu      11.26364002       6.25757994      10.00000011  F      -0.00384692      -0.00578849      -0.05575049
Cu       1.25151999       8.76061004      10.00000011  F       0.00138838       0.02250773      -0.07092340
Cu       3.75454997       8.76061004      10.00000011  F      -0.00278628       0.00834322      -0.07101358
Cu       6.25757994       8.76061004      10.00000011  F       0.00821063      -0.02522226      -0.05850404
Cu       8.76061004       8.76061004      10.00000011  F      -0.00779695      -0.02807430      -0.06191069
Cu      11.26364002       8.76061004      10.00000011  F      -0.00025661       0.00687150      -0.06929885
Cu       1.25151999      11.26364002      10.00000011  F      -0.00757050       0.00017450      -0.02672991
Cu       3.75454997      11.26364002      10.00000011  F      -0.01158863      -0.00486266      -0.07500971
Cu       6.25757994      11.26364002      10.00000011  F      -0.00131033       0.00120991      -0.06862463
Cu       8.76061004      11.26364002      10.00000011  F      -0.00450570       0.00347097      -0.05881280
Cu      11.26364002      11.26364002      10.00000011  F       0.02376519      -0.00031154      -0.07566260
Cu       0.00000000       0.00000000      11.76991004  F      -0.04981847       0.03450319       0.14159569
Cu       2.50302998       0.00000000      11.76991004  F       0.06662657       0.01463003       0.13411316
Cu       5.00605995       0.00000000      11.76991004  F       0.00661909       0.10273704       0.15323598
Cu       7.50909005       0.00000000      11.76991004  F       0.01312050       0.04854671       0.11144126
Cu      10.01212003       0.00000000      11.76991004  F       0.00888685       0.08597190       0.17517752
Cu       0.00000000       2.50302998      11.76991004  F      -0.10766289       0.06865082       0.09613294
Cu       2.50302998       2.50302998      11.76991004  F       0.09417407       0.06482719       0.08019097
Cu       5.00605995       2.50302998      11.76991004  F      -0.02222651      -0.04694463       0.10636057
Cu       7.50909005       2.50302998      11.76991004  F      -0.03327890      -0.03208705       0.13031045
Cu      10.01212003       2.50302998      11.76991004  F       0.07100243      -0.05650786       0.07897779
Cu       0.00000000       5.00605995      11.76991004  F      -0.10829256      -0.00194166       0.07447281
Cu       2.50302998       5.00605995      11.76991004  F       0.07883744       0.01014789       0.10502970
Cu       5.00605995       5.00605995      11.76991004  F      -0.05458727      -0.02335984       0.17826626
Cu       7.50909005       5.00605995      11.76991004  F      -0.06773467      -0.00287943       0.14587121
Cu      10.01212003       5.00605995      11.76991004  F       0.05854070      -0.04055554       0.12540693
Cu       0.00000000       7.50909005      11.76991004  F      -0.08625333       0.02903884       0.10136382
Cu       2.50302998       7.50909005      11.76991004  F       0.07463313       0.01815086       0.10670420
Cu       5.00605995       7.50909005      11.76991004  F       0.00760202       0.05795352       0.11724647
Cu       7.50909005       7.50909005      11.76991004  F      -0.02694045       0.00661419       0.13721844
Cu      10.01212003       7.50909005      11.76991004  F       0.02437846       0.09019213       0.07213874
Cu       0.00000000      10.01212003      11.76991004  F      -0.04213913      -0.01874805       0.11811736
Cu       2.50302998      10.01212003      11.76991004  F       0.06457546       0.01249976       0.11412521
Cu       5.00605995      10.01212003      11.76991004  F       0.02253031      -0.08022555       0.13609747
Cu       7.50909005      10.01212003      11.76991004  F       0.02190423      -0.05884966       0.13356399
Cu      10.01212003      10.01212003      11.76991004  F      -0.01778726      -0.08377116       0.15605134
Cu       1.26502009       1.26800508      13.56436331  T       0.00231398      -0.00231196      -0.01264528
Cu       3.76118350       1.26782524      13.62886187  T       0.00056792      -0.01178383      -0.00892589
Cu       6.27981186       1.27243056      13.61803639  T      -0.00050697      -0.01014041       0.00107028
Cu       8.75929057       1.27384152      13.61748236  T      -0.00466721      -0.01139201      -0.00189127
Cu      11.27898310       1.27205160      13.62367565  T       0.00469452      -0.01236288      -0.01004505
Cu       1.23797272       3.75623839      13.58235752  T       0.00097163      -0.00726019       0.00534368
Cu       3.75451780       3.74655817      13.61243636  T      -0.01872499      -0.01360976       0.00420593
Cu       6.26550291       3.76488598      13.58926277  T       0.01103077       0.00952459      -0.04021015
Cu       8.74158501       3.76287555      13.56450606  T      -0.01124265       0.00981970      -0.03280490
Cu      11.23655134       3.75653537      13.62845362  T       0.00824177       0.00515528       0.01681321
Cu       1.23671344       6.28110568      13.56186929  T       0.00118346      -0.00416713      -0.00546329
Cu       3.77171838       6.26938223      13.60419298  T      -0.02546402       0.00104753       0.00453974
Cu       6.26721574       6.24002394      13.59444342  T       0.00772723      -0.00237378      -0.05823346
Cu       8.73889876       6.24385983      13.56937692  T      -0.00507558      -0.00460138      -0.03801972
Cu      11.21791165       6.25818831      13.60453821  T       0.00640821      -0.00449740       0.01474405
Cu       1.26241744       8.79195875      13.58877607  T       0.00292734       0.00361342       0.00494314
Cu       3.78349414       8.76412543      13.61355531  T      -0.01188966       0.00193664      -0.01280271
Cu       6.28422195       8.72803022      13.62727318  T      -0.00820181       0.00849751      -0.01406666
Cu       8.75973110       8.72682388      13.62753792  T       0.00754212       0.01164624      -0.01025289
Cu      11.25951915       8.75512778      13.61608527  T       0.01242811       0.00821219      -0.00848696
Cu       1.24903949      11.28005464      13.60299330  T       0.00053520      -0.01014717      -0.02208565
Cu       3.73374803      11.27888723      13.59872962  T      -0.02309485       0.00828671       0.00997994
Cu       6.25475202      11.25833747      13.57511362  T      -0.00054315       0.00030874      -0.00098144
Cu       8.76481388      11.25923694      13.58144839  T      -0.01082358       0.00063682      -0.00299150
Cu      11.28207159      11.27289710      13.59905713  T       0.01891381       0.00704074       0.00948093
Cu      12.50720400       0.00498816      15.44270746  T      -0.04179563      -0.03644479      -0.08167119
Cu       2.50731003       0.00044404      15.46500685  T       0.03365240      -0.04127967      -0.07746704
Cu       5.00015080      12.48055173      15.37284830  T      -0.00285975      -0.01199131      -0.05749836
Cu       7.50748936      12.48827508      15.37052335  T      -0.00035603       0.02467093      -0.07005222
Cu      10.01786961      12.49402630      15.37014953  T       0.00720529      -0.00287422      -0.05243764
Cu      12.50472513       2.56370832      15.43976343  T      -0.03477872       0.01968245      -0.08204055
Cu       2.58645424       2.59199207      15.43005108  T       0.03765038       0.01795916      -0.08529741
Cu       5.03093044       2.41442094      15.47444156  T      -0.04544210      -0.05959447      -0.09555947
Cu       7.54478815       2.50232712      15.49521731  T       0.02516664      -0.07257118      -0.12719201
Cu      10.05586762       2.45308663      15.44649177  T       0.05187711      -0.05026079      -0.09721759
Cu      12.47544355       5.05887578      15.34481170  T       0.00092522      -0.00777835      -0.06343181
Cu       2.40088004       5.07935345      15.35465795  T      -0.03060125       0.00453231      -0.05469460
Pd       4.90560006       4.99130433      15.55373467  T       0.02781079      -0.00909182      -0.06752637
Y        7.48673298       4.99326596      17.25793066  T      -0.01449827      -0.00675732       0.07319137
Cu       9.96628252       4.99993566      15.46494307  T       0.09639051      -0.00192842      -0.14300712
Cu       0.05617740       7.52782148      15.37520641  T      -0.01999217      -0.01747838      -0.05823082
Cu       2.51594987       7.53765764      15.37346941  T       0.01966552      -0.00995426      -0.05815208
Cu       4.99817565       7.58345860      15.48086289  T      -0.05862271       0.07508487      -0.08750472
Cu       7.54522080       7.49351281      15.49740685  T       0.01535408       0.05813081      -0.11038348
Cu      10.09233916       7.54974465      15.46737281  T       0.05500411       0.05820709      -0.09153435
Cu      12.51187441      10.00276557      15.41130441  T      -0.00743023       0.00258232      -0.07270930
Cu       2.51092604      10.00975291      15.40794151  T       0.00587712       0.00034370      -0.07013663
Cu       5.00761871      10.04087322      15.38145538  T      -0.00028936      -0.00003626      -0.05923576
Cu       7.50955937      10.02635038      15.37229731  T       0.00096445      -0.01346896      -0.06906689
Cu      10.01504019      10.03247279      15.38166647  T      -0.00042948      -0.00311198      -0.06520961
O        6.15029955       3.40760801      16.67427386  T      -0.09684275       0.05148635       0.12999706
O        6.13731507       6.56369597      16.64721042  T      -0.09280229      -0.02310136       0.11979964
O        8.97045425       6.41796802      16.53608679  T       0.05122907       0.09577667       0.12396910
O        8.97371007       3.57992203      16.54840149  T       0.04370220      -0.08236682       0.11878908
C        1.24205991       0.74166540      16.82683813  T       0.01679176       0.52067331       0.54133226
O        1.31224953       2.12505331      16.90735775  T      -0.06472065      -0.87647506       0.08607259
H        0.96814663       0.82866537      19.00178549  T       0.03618853      -0.24961044      -0.21368682
C        1.07426199       0.07744127      18.16391421  T       0.01160078       0.43799039      -0.24817620
O        1.04951991      11.37954436      18.37813526  T       0.01187201       0.02869580      -0.10509240
109
Lattice="12.51515363 0.0 0.0 0.0 12.51515363 0.0 0.0 0.0 25.30973" Properties=species:S:1:pos:R:3:move_mask:L:1:forces:R:3 energy=-453.19550854 stress="0.008493697794195152 1.8390600397905893e-05 -1.7355826841434837e-05 1.8390600397905893e-05 0.008562405668577336 0.00020846419531027026 -1.7355826841434837e-05 0.00020846419531027026 0.0033308040953283643" free_energy=-453.19705801 pbc="T T T"
Cu       1.25151999       1.25151999      10.00000011  F      -0.00197481      -0.01926619      -0.07368738
Cu       3.75454997       1.25151999      10.00000011  F      -0.00143564       0.00454010      -0.05590409
Cu       6.25757994       1.25151999      10.00000011  F      -0.00647149       0.01137495      -0.05379106
Cu       8.76061004       1.25151999      10.00000011  F       0.00600229       0.01076428      -0.04522821
Cu      11.26364002       1.25151999      10.00000011  F       0.00009547      -0.00184481      -0.06497721
Cu       1.25151999       3.75454997      10.00000011  F      -0.00358997       0.00342301      -0.05446607
Cu       3.75454997       3.75454997      10.00000011  F       0.01057929      -0.01629271      -0.05524319
Cu       6.25757994       3.75454997      10.00000011  F      -0.01896044      -0.01715713      -0.07509309
Cu       8.76061004       3.75454997      10.00000011  F       0.02074566      -0.01731158      -0.07081998
Cu      11.26364002       3.75454997      10.00000011  F      -0.00638305      -0.00099099      -0.05167244
Cu       1.25151999       6.25757994      10.00000011  F      -0.00095648      -0.00946583      -0.06753231
Cu       3.75454997       6.25757994      10.00000011  F       0.00817999       0.00662276      -0.05544933
Cu       6.25757994       6.25757994      10.00000011  F       0.00485251       0.03204829      -0.07089609
Cu       8.76061004       6.25757994      10.00000011  F      -0.00326652       0.03548753      -0.06435412
Cu      11.26364002       6.25757994      10.00000011  F      -0.00410390      -0.00531234      -0.05547279
Cu       1.25151999       8.76061004      10.00000011  F       0.00114409       0.02232454      -0.07059192
Cu       3.75454997       8.76061004      10.00000011  F      -0.00238739       0.00799474      -0.07120561
Cu       6.25757994       8.76061004      10.00000011  F       0.00853904      -0.02499321      -0.05839787
Cu       8.76061004       8.76061004      10.00000011  F      -0.00764880      -0.02750258      -0.06178584
Cu      11.26364002       8.76061004      10.00000011  F      -0.00080322       0.00658217      -0.06945530
Cu       1.25151999      11.26364002      10.00000011  F      -0.00778698       0.00016532      -0.02764065
Cu       3.75454997      11.26364002      10.00000011  F      -0.01115183      -0.00498030      -0.07530151
Cu       6.25757994      11.26364002      10.00000011  F      -0.00016836       0.00097710      -0.06904898
Cu       8.76061004      11.26364002      10.00000011  F      -0.00496592       0.00323119      -0.06048801
Cu      11.26364002      11.26364002      10.00000011  F       0.02293682      -0.00043018      -0.07622005
Cu       0.00000000       0.00000000      11.76991004  F      -0.05037035       0.03459852       0.14040746
Cu       2.50302998       0.00000000      11.76991004  F       0.06697834       0.01461160       0.13291010
Cu       5.00605995       0.00000000      11.76991004  F       0.00694140       0.10222371       0.15286499
Cu       7.50909005       0.00000000      11.76991004  F       0.01348063       0.04822261       0.11018903
Cu      10.01212003       0.00000000      11.76991004  F       0.00842832       0.08536390       0.17447789
Cu       0.00000000       2.50302998      11.76991004  F      -0.10840115       0.06901194       0.09497665
Cu       2.50302998       2.50302998      11.76991004  F       0.09441238       0.06508904       0.07898561
Cu       5.00605995       2.50302998      11.76991004  F      -0.02249435      -0.04719476       0.10612986
Cu       7.50909005       2.50302998      11.76991004  F      -0.03297796      -0.03257429       0.12874539
Cu      10.01212003       2.50302998      11.76991004  F       0.07150807      -0.05676934       0.07922044
Cu       0.00000000       5.00605995      11.76991004  F      -0.10860869      -0.00222161       0.07451138
Cu       2.50302998       5.00605995      11.76991004  F       0.07867115       0.00991929       0.10471480
Cu       5.00605995       5.00605995      11.76991004  F      -0.05526860      -0.02318448       0.17770767
Cu       7.50909005       5.00605995      11.76991004  F      -0.06725822      -0.00255849       0.14307027
Cu      10.01212003       5.00605995      11.76991004  F       0.05899073      -0.04019036       0.12476759
Cu       0.00000000       7.50909005      11.76991004  F      -0.08667330       0.02911281       0.10106045
Cu       2.50302998       7.50909005      11.76991004  F       0.07439850       0.01815965       0.10626730
Cu       5.00605995       7.50909005      11.76991004  F       0.00766463       0.05792203       0.11627863
Cu       7.50909005       7.50909005      11.76991004  F      -0.02660119       0.00739266       0.13596162
Cu      10.01212003       7.50909005      11.76991004  F       0.02458922       0.09006979       0.07142207
Cu       0.00000000      10.01212003      11.76991004  F      -0.04273330      -0.01923581       0.11781973
Cu       2.50302998      10.01212003      11.76991004  F       0.06473550       0.01215344       0.11386083
Cu       5.00605995      10.01212003      11.76991004  F       0.02287497      -0.07989628       0.13567617
Cu       7.50909005      10.01212003      11.76991004  F       0.02224339      -0.05924618       0.13194234
Cu      10.01212003      10.01212003      11.76991004  F      -0.01800571      -0.08324882       0.15528705
Cu       1.26504249       1.26798268      13.56424132  T       0.00196556      -0.00348546      -0.01080622
Cu       3.76118901       1.26771160      13.62877582  T      -0.00059205      -0.01282958      -0.01080614
Cu       6.27980698       1.27233269      13.61804677  T      -0.00007472      -0.00923530      -0.00287785
Cu       8.75924552       1.27373164      13.61746414  T      -0.00391192      -0.01062043      -0.00619438
Cu      11.27902840       1.27193233      13.62357872  T       0.00536887      -0.01292156      -0.01255832
Cu       1.23798210       3.75616830      13.58240915  T       0.00058057      -0.00781552       0.00473423
Cu       3.75433709       3.74642688      13.61247711  T      -0.01639569      -0.01069983       0.00071008
Cu       6.26560942       3.76497797      13.58887503  T       0.01008603       0.00845376      -0.03779779
Cu       8.74147650       3.76297029      13.56418969  T      -0.00980980       0.00904058      -0.03054174
Cu      11.23663094       3.75658518      13.62861586  T       0.00722327       0.00506796       0.01092252
Cu       1.23672483       6.28106538      13.56181665  T       0.00034226      -0.00283694      -0.00844064
Cu       3.77147271       6.26939237      13.60423677  T      -0.02261732       0.00052636       0.00196796
Cu       6.26729033       6.24000103      13.59388155  T       0.00651815      -0.00116114      -0.05409114
Cu       8.73884982       6.24381540      13.56901018  T      -0.00401333      -0.00364410      -0.03500207
Cu      11.21797348       6.25814488      13.60468045  T       0.00568684      -0.00286710       0.00958256
Cu       1.26244572       8.79199354      13.58882390  T       0.00247005       0.00210201       0.00270662
Cu       3.78337938       8.76414407      13.61343179  T      -0.01154806       0.00259911      -0.01596593
Cu       6.28414273       8.72811219      13.62713752  T      -0.00753515       0.00767623      -0.01645348
Cu       8.75980382       8.72693627      13.62743896  T       0.00751579       0.01072629      -0.01359314
Cu      11.25963905       8.75520700      13.61600326  T       0.01229200       0.00813813      -0.01210263
Cu       1.24904462      11.27995678      13.60278019  T       0.00025558      -0.00834246      -0.02088607
Cu       3.73352514      11.27896720      13.59882580  T      -0.02053632       0.00652753       0.00594777
Cu       6.25474689      11.25834048      13.57510426  T      -0.00069471      -0.00022362      -0.00383107
Cu       8.76470938      11.25924307      13.58141954  T      -0.00962899       0.00018994      -0.00563418
Cu      11.28225406      11.27296493      13.59914875  T       0.01611961       0.00557372       0.00526000
Cu      12.50680077       0.00463649      15.44191957  T      -0.01999595      -0.03301997      -0.06701035
Cu       2.50763468       0.00004568      15.46425946  T       0.01156752      -0.03674614      -0.06416723
Cu       5.00012314      12.48043609      15.37229352  T      -0.00220697      -0.01197571      -0.05424899
Cu       7.50748598      12.48851312      15.36984733  T      -0.00033992       0.02115911      -0.06648878
Cu      10.01793920      12.49399864      15.36964359  T       0.00609562      -0.00375903      -0.04985894
Cu      12.50438960       2.56389818      15.43897200  T      -0.03338687       0.02380935      -0.09354148
Cu       2.58681743       2.59216528      15.42922801  T       0.03017592       0.02045676      -0.09076679
Cu       5.03049203       2.41384599      15.47351953  T      -0.03330842      -0.04859614      -0.08098734
Cu       7.54503094       2.50162690      15.49399004  T       0.01990014      -0.05762649      -0.11004701
Cu      10.05636823       2.45260167      15.44555379  T       0.04178679      -0.04083572      -0.08411780
Cu      12.47545243       5.05880068      15.34419972  T       0.00407078      -0.00913698      -0.05920556
Cu       2.40058468       5.07939712      15.35413024  T      -0.02841050       0.00163140      -0.05055934
Pd       4.90586839       4.99121660      15.55308319  T       0.02764275      -0.00653885      -0.05775171
Y        7.48659319       4.99320075      17.25863680  T      -0.00602817      -0.00364261       0.06545860
Cu       9.96721253       4.99991701      15.46356344  T       0.07901441      -0.00079662      -0.12425298
Cu       0.05598454       7.52765278      15.37464454  T      -0.01708729      -0.01673793      -0.05623972
Cu       2.51613960       7.53756152      15.37290829  T       0.01602404      -0.00931388      -0.05571898
Cu       4.99761009       7.58418297      15.48001856  T      -0.04589648       0.06144361      -0.07528776
Cu       7.54536898       7.49407362      15.49634182  T       0.01212921       0.04519081      -0.09629415
Cu      10.09286980       7.55030633      15.46648950  T       0.04341269       0.04656750      -0.07986384
Cu      12.51180270      10.00279048      15.41060283  T      -0.00551845       0.00361926      -0.06680338
Cu       2.51098273      10.00975616      15.40726473  T       0.00419754       0.00128829      -0.06497688
Cu       5.00761596      10.04087284      15.38088389  T       0.00002110       0.00117805      -0.05688337
Cu       7.50956863      10.02622035      15.37163091  T       0.00083053      -0.01134515      -0.06623911
Cu      10.01503606      10.03244276      15.38103727  T      -0.00066196      -0.00152354      -0.06281230
O        6.14936516       3.40810486      16.67552796  T      -0.09622780       0.04179538       0.11227910
O        6.13641962       6.56347308      16.64836632  T      -0.09243319      -0.01477075       0.10299751
O        8.97094848       6.41889214      16.53728292  T       0.05324775       0.09327294       0.10668888
O        8.97413171       3.57912731      16.54954777  T       0.04605872      -0.08095983       0.10213300
C        1.24222199       0.74668911      16.83206130  T       0.01471534       0.25205072       0.37359607
O        1.31162502       2.11659657      16.90818816  T      -0.03945485      -0.55566388       0.11255386
H        0.96849580       0.82625695      18.99972376  T       0.02520122      -0.17759058      -0.14078576
C        1.07437388       0.08166713      18.16151966  T       0.00062583       0.08827082      -0.13128281
O        1.04963442      11.37982132      18.37712135  T       0.01762764       0.24138854      -0.16829580
109
Lattice="12.51515363 0.0 0.0 0.0 12.51515363 0.0 0.0 0.0 25.30973" Properties=species:S:1:pos:R:3:move_mask:L:1:forces:R:3 energy=-453.20948447 stress="0.008482369867071276 8.624561000709367e-06 -1.8366071267041175e-05 8.624561000709367e-06 0.008311056394863105 0.00023259700282851612 -1.8366071267041175e-05 0.00023259700282851612 0.003180768171149187" free_energy=-453.21104134 pbc="T T T"
Cu       1.25151999       1.25151999      10.00000011  F      -0.00199078      -0.01925743      -0.07318743
Cu       3.75454997       1.25151999      10.00000011  F      -0.00201618       0.00466492      -0.05584137
Cu       6.25757994       1.25151999      10.00000011  F      -0.00610966       0.01159170      -0.05412277
Cu       8.76061004       1.25151999      10.00000011  F       0.00574154       0.01086285      -0.04559384
Cu      11.26364002       1.25151999      10.00000011  F       0.00062997      -0.00191759      -0.06511520
Cu       1.25151999       3.75454997      10.00000011  F      -0.00349136       0.00363694      -0.05425508
Cu       3.75454997       3.75454997      10.00000011  F       0.00983058      -0.01613409      -0.05516735
Cu       6.25757994       3.75454997      10.00000011  F      -0.01851165      -0.01711622      -0.07530589
Cu       8.76061004       3.75454997      10.00000011  F       0.02033717      -0.01724454      -0.07109253
Cu      11.26364002       3.75454997      10.00000011  F      -0.00570203      -0.00083814      -0.05170851
Cu       1.25151999       6.25757994      10.00000011  F      -0.00091314      -0.00961681      -0.06737581
Cu       3.75454997       6.25757994      10.00000011  F       0.00771580       0.00685223      -0.05524338
Cu       6.25757994       6.25757994      10.00000011  F       0.00455775       0.03163620      -0.07113612
Cu       8.76061004       6.25757994      10.00000011  F      -0.00293909       0.03513468      -0.06466210
Cu      11.26364002       6.25757994      10.00000011  F      -0.00365634      -0.00497141      -0.05530129
Cu       1.25151999       8.76061004      10.00000011  F       0.00111246       0.02229950      -0.07018281
Cu       3.75454997       8.76061004      10.00000011  F      -0.00291845       0.00748283      -0.07137038
Cu       6.25757994       8.76061004      10.00000011  F       0.00813221      -0.02496527      -0.05893912
Cu       8.76061004       8.76061004      10.00000011  F      -0.00709290      -0.02736130      -0.06223642
Cu      11.26364002       8.76061004      10.00000011  F      -0.00034147       0.00619915      -0.06968985
Cu       1.25151999      11.26364002      10.00000011  F      -0.00791660       0.00019253      -0.02765169
Cu       3.75454997      11.26364002      10.00000011  F      -0.01178446      -0.00490710      -0.07521544
Cu       6.25757994      11.26364002      10.00000011  F       0.00010477       0.00109426      -0.06945927
Cu       8.76061004      11.26364002      10.00000011  F      -0.00503489       0.00334770      -0.06097189
Cu      11.26364002      11.26364002      10.00000011  F       0.02349204      -0.00038807      -0.07604627
Cu       0.00000000       0.00000000      11.76991004  F      -0.05007737       0.03453564       0.13836142
Cu       2.50302998       0.00000000      11.76991004  F       0.06686087       0.01458355       0.13073592
Cu       5.00605995       0.00000000      11.76991004  F       0.00618682       0.10216471       0.15267284
Cu       7.50909005       0.00000000      11.76991004  F       0.01345500       0.04875015       0.10940167
Cu      10.01212003       0.00000000      11.76991004  F       0.00897306       0.08501339       0.17427305
Cu       0.00000000       2.50302998      11.76991004  F      -0.10846481       0.06941611       0.09336548
Cu       2.50302998       2.50302998      11.76991004  F       0.09448227       0.06528341       0.07713217
Cu       5.00605995       2.50302998      11.76991004  F      -0.02367889      -0.04740700       0.10606884
Cu       7.50909005       2.50302998      11.76991004  F      -0.03310542      -0.03331988       0.12698583
Cu      10.01212003       2.50302998      11.76991004  F       0.07277799      -0.05701261       0.07964706
Cu       0.00000000       5.00605995      11.76991004  F      -0.10823076      -0.00276016       0.07384253
Cu       2.50302998       5.00605995      11.76991004  F       0.07828724       0.00931359       0.10391264
Cu       5.00605995       5.00605995      11.76991004  F      -0.05737798      -0.02351792       0.17682313
Cu       7.50909005       5.00605995      11.76991004  F      -0.06713270      -0.00281452       0.13900888
Cu      10.01212003       5.00605995      11.76991004  F       0.06049813      -0.04012315       0.12354598
Cu       0.00000000       7.50909005      11.76991004  F      -0.08625476       0.02912705       0.10033757
Cu       2.50302998       7.50909005      11.76991004  F       0.07364925       0.01821132       0.10508131
Cu       5.00605995       7.50909005      11.76991004  F       0.00642421       0.05753006       0.11496130
Cu       7.50909005       7.50909005      11.76991004  F      -0.02643856       0.00824128       0.13444177
Cu      10.01212003       7.50909005      11.76991004  F       0.02585401       0.08967905       0.07044105
Cu       0.00000000      10.01212003      11.76991004  F      -0.04233974      -0.01917509       0.11685447
Cu       2.50302998      10.01212003      11.76991004  F       0.06421771       0.01228940       0.11276927
Cu       5.00605995      10.01212003      11.76991004  F       0.02199783      -0.07909332       0.13528572