109
Lattice="12.51515363 0.0 0.0 0.0 12.51515363 0.0 0.0 0.0 25.30973" Properties=species:S:1:pos:R:3:move_mask:L:1:forces:R:3 energy=-453.2608711 stress="0.007599607703625281 3.967326022287193e-05 4.7732178217538996e-05 3.967326022287193e-05 0.007945675361086882 -0.00014506113557190162 4.7732178217538996e-05 -0.00014506113557190162 0.0022368645463135698" free_energy=-453.25994109 pbc="T T T"
Cu       1.25151999       1.25151999      10.00000011  F       0.00257662       0.00213149      -0.06067315
Cu       3.75454997       1.25151999      10.00000011  F      -0.00238305       0.01425507      -0.06072232
Cu       6.25757994       1.25151999      10.00000011  F       0.00376290       0.02360258      -0.05596185
Cu       8.76061004       1.25151999      10.00000011  F       0.00039311       0.00476170      -0.05941047
Cu      11.26364002       1.25151999      10.00000011  F      -0.00728527      -0.00208689      -0.07953688
Cu       1.25151999       3.75454997      10.00000011  F      -0.00408935       0.00049274      -0.06528604
Cu       3.75454997       3.75454997      10.00000011  F       0.01570133      -0.01241352      -0.04433604
Cu       6.25757994       3.75454997      10.00000011  F      -0.01963216      -0.02625530      -0.08108415
Cu       8.76061004       3.75454997      10.00000011  F       0.01262328      -0.01688683      -0.06891773
Cu      11.26364002       3.75454997      10.00000011  F      -0.00137924       0.00315727      -0.05629420
Cu       1.25151999       6.25757994      10.00000011  F      -0.00835756      -0.00116517      -0.07583699
Cu       3.75454997       6.25757994      10.00000011  F       0.02304115       0.01341292      -0.05542944
Cu       6.25757994       6.25757994      10.00000011  F      -0.01899325       0.03355994      -0.08922145
Cu       8.76061004       6.25757994      10.00000011  F       0.00903182       0.02068724      -0.06571482
Cu      11.26364002       6.25757994      10.00000011  F      -0.00151853       0.00414782      -0.06084192
Cu       1.25151999       8.76061004      10.00000011  F       0.00101825       0.00024255      -0.05756801
Cu       3.75454997       8.76061004      10.00000011  F       0.00297551      -0.01270785      -0.06601423
Cu       6.25757994       8.76061004      10.00000011  F      -0.00276989      -0.03482228      -0.05808909
Cu       8.76061004       8.76061004      10.00000011  F      -0.00283751      -0.01601825      -0.05918702
Cu      11.26364002       8.76061004      10.00000011  F       0.00115307      -0.00998759      -0.08103529
Cu       1.25151999      11.26364002      10.00000011  F       0.01390924      -0.00219856      -0.02719994
Cu       3.75454997      11.26364002      10.00000011  F      -0.01996817      -0.00313651      -0.06526380
Cu       6.25757994      11.26364002      10.00000011  F       0.00602845       0.00315603      -0.06376330
Cu       8.76061004      11.26364002      10.00000011  F       0.00099914       0.00725083      -0.05904709
Cu      11.26364002      11.26364002      10.00000011  F      -0.00379452       0.00424227      -0.03585627
Cu       0.00000000       0.00000000      11.76991004  F       0.04179506       0.08636970       0.11343206
Cu       2.50302998       0.00000000      11.76991004  F       0.03241926       0.05450732       0.06126625
Cu       5.00605995       0.00000000      11.76991004  F       0.02888360       0.09834995       0.08195464
Cu       7.50909005       0.00000000      11.76991004  F       0.01420572       0.06615092       0.05914265
Cu      10.01212003       0.00000000      11.76991004  F      -0.02549242       0.07381022       0.06069583
Cu       0.00000000       2.50302998      11.76991004  F      -0.07430343      -0.02612883       0.02106670
Cu       2.50302998       2.50302998      11.76991004  F       0.08190069      -0.02422717       0.02980369
Cu       5.00605995       2.50302998      11.76991004  F      -0.01217426      -0.03421292       0.06793067
Cu       7.50909005       2.50302998      11.76991004  F      -0.01632263      -0.01520270       0.06357163
Cu      10.01212003       2.50302998      11.76991004  F       0.02660813      -0.05652718       0.01389371
Cu       0.00000000       5.00605995      11.76991004  F      -0.13420395      -0.01013851      -0.00836596
Cu       2.50302998       5.00605995      11.76991004  F       0.08728975       0.00568378       0.12077831
Cu       5.00605995       5.00605995      11.76991004  F      -0.02630966      -0.00243302       0.19128862
Cu       7.50909005       5.00605995      11.76991004  F      -0.08989982      -0.00388693       0.11772775
Cu      10.01212003       5.00605995      11.76991004  F       0.01099924       0.00447102       0.01007122
Cu       0.00000000       7.50909005      11.76991004  F      -0.10557068       0.03986158       0.00095944
Cu       2.50302998       7.50909005      11.76991004  F       0.09334856       0.00756371       0.05336512
Cu       5.00605995       7.50909005      11.76991004  F      -0.00439491       0.01633881       0.07594405
Cu       7.50909005       7.50909005      11.76991004  F      -0.00962537       0.02067168       0.07161421
Cu      10.01212003       7.50909005      11.76991004  F       0.02024829       0.05949579       0.02351267
Cu       0.00000000      10.01212003      11.76991004  F       0.01855351      -0.08265215       0.10200450
Cu       2.50302998      10.01212003      11.76991004  F       0.03794416      -0.06674127       0.06133364
Cu       5.00605995      10.01212003      11.76991004  F       0.03135891      -0.12592128       0.08517961
Cu       7.50909005      10.01212003      11.76991004  F       0.01762909      -0.09126698       0.06147444
Cu      10.01212003      10.01212003      11.76991004  F      -0.03133454      -0.08731682       0.07595379
Cu       1.29200088       1.25879280      13.60011154  T       0.00078886      -0.00091207       0.00155564
Cu       3.77969053       1.26695819      13.61593315  T       0.00036420      -0.00030116       0.00147373
Cu       6.29018667       1.27629612      13.59882378  T       0.00035738      -0.00026855       0.00035215
Cu       8.76786245       1.27990299      13.60749337  T       0.00069352      -0.00029797       0.00025947
Cu      11.26886785       1.25819758      13.59058470  T       0.00082656       0.00017187       0.00080302
Cu       1.23678290       3.74089331      13.55279525  T      -0.00210129      -0.00292339      -0.00415210
Cu       3.75202253       3.73611627      13.59650110  T       0.00139951      -0.00158541      -0.00160123
Cu       6.25952129       3.77741253      13.59556869  T       0.00149161      -0.00085964      -0.00016033
Cu       8.73526798       3.76586842      13.55451631  T       0.00063684      -0.00014634       0.00026709
Cu      11.21848522       3.75969007      13.59295951  T      -0.00027241      -0.00025172       0.00058075
Cu       1.22946028       6.27338833      13.54407428  T       0.00001827       0.00149617       0.00084886
Cu       3.76127624       6.25955909      13.60302772  T      -0.00232314       0.00263342       0.00025736
Cu       6.26378045       6.23075509      13.59465881  T       0.00047014       0.00008780      -0.00077585
Cu       8.73506148       6.24545251      13.55755626  T       0.00054097      -0.00014345      -0.00006114
Cu      11.21624326       6.25690513      13.59279348  T      -0.00000274      -0.00000210       0.00015437
Cu       1.28048644       8.75835857      13.59120302  T       0.00319039      -0.00290802       0.00511742
Cu       3.78018100       8.73320148      13.61330550  T      -0.00217720      -0.00238084       0.00464759
Cu       6.28651223       8.72386005      13.60823090  T       0.00045636       0.00117936      -0.00153613
Cu       8.76409614       8.72911641      13.61201091  T       0.00077410       0.00029454      -0.00009942
Cu      11.26944567       8.74931236      13.59760815  T       0.00072981       0.00040165       0.00009092
Cu       1.24531448      11.26393112      13.58758018  T      -0.00016262      -0.00107290       0.00106862
Cu       3.74466976      11.25674880      13.56606868  T      -0.00030933      -0.00071941       0.00075253
Cu       6.25691589      11.25704416      13.56040993  T       0.00026431       0.00079222       0.00012625
Cu       8.76263374      11.26203019      13.56765434  T       0.00008828      -0.00003797       0.00040572
Cu      11.27154184      11.26210403      13.57474714  T      -0.00044851       0.00041547       0.00050001
Cu      12.51411274       0.00853120      15.36396889  T      -0.00044442       0.00016354      -0.00015298
Cu       2.51141538      12.48612135      15.36655529  T      -0.00032127       0.00033001       0.00102696
Cu       5.00950400      12.46670534      15.34305825  T      -0.00033356       0.00028038       0.00048036
Cu       7.50767972      12.49765970      15.33969534  T      -0.00005795      -0.00048117      -0.00049106
Cu      10.01552240      12.49350792      15.34986403  T      -0.00023793      -0.00000407      -0.00069714
Cu       0.04804768       2.50845254      15.33073823  T       0.00314596       0.00030031       0.00045869
Cu       2.53786240       2.45146854      15.48207422  T       0.00419258       0.00063596       0.00569587
Cu       5.06882157       2.39408281      15.43517554  T       0.00050077       0.00069826       0.00140695
Cu       7.58469021       2.51224638      15.47000907  T       0.00180182      -0.00066239      -0.00027142
Cu      10.10874690       2.44939616      15.44057740  T       0.00199417       0.00019456       0.00030321
Cu      12.42967976       5.01106176      15.31832912  T       0.00147069       0.00034641      -0.00125131
Cu       2.31217639       5.04150725      15.29873357  T      -0.00285535      -0.01049785      -0.02020730
Pd       4.80562914       4.97522837      15.62899922  T       0.00384580       0.00070795      -0.00483565
Y        7.50556628       5.00069984      17.22791282  T      -0.00025007      -0.00092894      -0.00396932
Cu       9.94628869       5.00581578      15.42989846  T       0.00075794       0.00025877       0.00006016
Cu       0.06637574       7.49921209      15.35203257  T      -0.00065377       0.00073350      -0.00094372
Cu       2.54280088       7.51766143      15.44970434  T       0.00389945      -0.00698842       0.02808242
Cu       5.04245252       7.57463992      15.44827130  T       0.00664405       0.00385317      -0.00394147
Cu       7.56642635       7.49240134      15.47917372  T       0.00286863       0.00027115      -0.00051113
Cu      10.11144254       7.55784734      15.44372820  T       0.00025362       0.00003355      -0.00037219
Cu      12.51211495      10.00554056      15.36672234  T      -0.00028007       0.00046013      -0.00078822
Cu       2.50778511      10.00803433      15.36419035  T      -0.00007576      -0.00075538       0.00106880
Cu       5.00504322      10.02973510      15.34855071  T       0.00046485       0.00112676      -0.00072011
Cu       7.50627114      10.02729690      15.34344599  T      -0.00014258      -0.00033926      -0.00100183
Cu      10.01347204      10.03071567      15.35087187  T      -0.00011206       0.00010835      -0.00101256
O        6.16883962       3.40622859      16.66190171  T       0.00125790       0.00078219       0.00004868
O        6.15024761       6.58768302      16.68107509  T       0.00168434      -0.00286796       0.00064302
O        9.00589028       6.44833128      16.55364288  T       0.00036946      -0.00059587       0.00139921
O        9.02376430       3.56816066      16.55994095  T       0.00138444      -0.00015316       0.00124365
C        3.16040231       4.56726515      16.99792786  T      -0.00534477       0.00922766      -0.00199514
O        2.95656200       3.36394802      17.36397312  T       0.00078216       0.01830475       0.00748944
H        3.73346081       5.25993735      19.02188217  T      -0.02077940       0.02348632       0.00391820
C        3.30637869       5.62473931      18.05789707  T      -0.00717321       0.00387706      -0.02304412
O        2.97870919       6.80063849      17.90838414  T      -0.01730800       0.06139174      -0.06130198
109
Lattice="12.51515363 0.0 0.0 0.0 12.51515363 0.0 0.0 0.0 25.30973" Properties=species:S:1:pos:R:3:move_mask:L:1:forces:R:3 energy=-453.26012034999997 stress="0.007562591896984446 3.6255041576499836e-05 4.783700436330821e-05 3.6255041576499836e-05 0.007916453532861337 -0.00014736321010732853 4.783700436330821e-05 -0.00014736321010732853 0.0021993559600442273" free_energy=-453.25918084 pbc="T T T"
Cu       1.25151999       1.25151999      10.00000011  F       0.00216434       0.00233369      -0.06028644
Cu       3.75454997       1.25151999      10.00000011  F      -0.00214811       0.01462313      -0.06061068
Cu       6.25757994       1.25151999      10.00000011  F       0.00409981       0.02369413      -0.05591320
Cu       8.76061004       1.25151999      10.00000011  F       0.00089840       0.00444163      -0.05951776
Cu      11.26364002       1.25151999      10.00000011  F      -0.00744307      -0.00252490      -0.08051359
Cu       1.25151999       3.75454997      10.00000011  F      -0.00412424       0.00061400      -0.06526620
Cu       3.75454997       3.75454997      10.00000011  F       0.01582358      -0.01232845      -0.04430164
Cu       6.25757994       3.75454997      10.00000011  F      -0.01942745      -0.02621373      -0.08103562
Cu       8.76061004       3.75454997      10.00000011  F       0.01281990      -0.01690124      -0.06889159
Cu      11.26364002       3.75454997      10.00000011  F      -0.00136946       0.00294188      -0.05629260
Cu       1.25151999       6.25757994      10.00000011  F      -0.00840227      -0.00116184      -0.07581120
Cu       3.75454997       6.25757994      10.00000011  F       0.02316198       0.01341838      -0.05539541
Cu       6.25757994       6.25757994      10.00000011  F      -0.01877463       0.03361376      -0.08918344
Cu       8.76061004       6.25757994      10.00000011  F       0.00923760       0.02082053      -0.06568887
Cu      11.26364002       6.25757994      10.00000011  F      -0.00151938       0.00451448      -0.06083554
Cu       1.25151999       8.76061004      10.00000011  F       0.00055568       0.00013325      -0.05728393
Cu       3.75454997       8.76061004      10.00000011  F       0.00316735      -0.01298597      -0.06592851
Cu       6.25757994       8.76061004      10.00000011  F      -0.00241089      -0.03482716      -0.05804085
Cu       8.76061004       8.76061004      10.00000011  F      -0.00229143      -0.01561958      -0.05928572
Cu      11.26364002       8.76061004      10.00000011  F       0.00102385      -0.00947301      -0.08209399
Cu       1.25151999      11.26364002      10.00000011  F       0.01307214      -0.00219912      -0.02620785
Cu       3.75454997      11.26364002      10.00000011  F      -0.01972909      -0.00309820      -0.06428577
Cu       6.25757994      11.26364002      10.00000011  F       0.00684577       0.00319360      -0.06351950
Cu       8.76061004      11.26364002      10.00000011  F       0.00171713       0.00726962      -0.05996894
Cu      11.26364002      11.26364002      10.00000011  F      -0.00430447       0.00422472      -0.03745513
Cu       0.00000000       0.00000000      11.76991004  F       0.04128220       0.08638918       0.11305103
Cu       2.50302998       0.00000000      11.76991004  F       0.03241501       0.05470882       0.06171203
Cu       5.00605995       0.00000000      11.76991004  F       0.02918749       0.09856560       0.08223285
Cu       7.50909005       0.00000000      11.76991004  F       0.01464483       0.06608751       0.05889089
Cu      10.01212003       0.00000000      11.76991004  F      -0.02519888       0.07367867       0.05987319
Cu       0.00000000       2.50302998      11.76991004  F      -0.07459323      -0.02630750       0.02078779
Cu       2.50302998       2.50302998      11.76991004  F       0.08198325      -0.02423543       0.02986569
Cu       5.00605995       2.50302998      11.76991004  F      -0.01196108      -0.03419891       0.06794703
Cu       7.50909005       2.50302998      11.76991004  F      -0.01606253      -0.01521228       0.06351892
Cu      10.01212003       2.50302998      11.76991004  F       0.02685666      -0.05669597       0.01356234
Cu       0.00000000       5.00605995      11.76991004  F      -0.13424912      -0.01001777      -0.00847967
Cu       2.50302998       5.00605995      11.76991004  F       0.08734279       0.00577283       0.12083094
Cu       5.00605995       5.00605995      11.76991004  F      -0.02616773      -0.00236915       0.19138229
Cu       7.50909005       5.00605995      11.76991004  F      -0.08968468      -0.00385894       0.11769382
Cu      10.01212003       5.00605995      11.76991004  F       0.01111423       0.00451774       0.00994468
Cu       0.00000000       7.50909005      11.76991004  F      -0.10576485       0.04012069       0.00073114
Cu       2.50302998       7.50909005      11.76991004  F       0.09335160       0.00763562       0.05341543
Cu       5.00605995       7.50909005      11.76991004  F      -0.00427615       0.01640393       0.07600740
Cu       7.50909005       7.50909005      11.76991004  F      -0.00935948       0.02074985       0.07153102
Cu      10.01212003       7.50909005      11.76991004  F       0.02055497       0.05978791       0.02313315
Cu       0.00000000      10.01212003      11.76991004  F       0.01808549      -0.08270642       0.10162661
Cu       2.50302998      10.01212003      11.76991004  F       0.03788498      -0.06696464       0.06176994
Cu       5.00605995      10.01212003      11.76991004  F       0.03160193      -0.12607621       0.08548500
Cu       7.50909005      10.01212003      11.76991004  F       0.01808228      -0.09108310       0.06120513
Cu      10.01212003      10.01212003      11.76991004  F      -0.03099931      -0.08713807       0.07508808
Cu       1.29200852       1.25878391      13.60012647  T       0.00061033      -0.00053241       0.00103414
Cu       3.77969404       1.26695531      13.61594733  T       0.00033261      -0.00008423       0.00108304
Cu       6.29019018       1.27629349      13.59882707  T       0.00039292      -0.00006201       0.00026223
Cu       8.76786921       1.27990011      13.60749590  T       0.00053683      -0.00014280       0.00003678
Cu      11.26887586       1.25819933      13.59059255  T       0.00061545       0.00014862       0.00030973
Cu       1.23676263       3.74086515      13.55275501  T      -0.00138201      -0.00198761      -0.00285096
Cu       3.75203605       3.73610101      13.59648566  T       0.00109815      -0.00091404      -0.00089807
Cu       6.25953569       3.77740414      13.59556717  T       0.00099270      -0.00042856       0.00004279
Cu       8.73527412       3.76586705      13.55451884  T       0.00049439      -0.00005335       0.00008413
Cu      11.21848259       3.75968769      13.59296508  T      -0.00008609      -0.00012222       0.00028947
Cu       1.22946041       6.27340285      13.54408237  T      -0.00000163       0.00118190       0.00043481
Cu       3.76125384       6.25958450      13.60303025  T      -0.00132977       0.00169047       0.00046995
Cu       6.26378508       6.23075584      13.59465147  T       0.00030872       0.00001266      -0.00033200
Cu       8.73506674       6.24545113      13.55755576  T       0.00043989      -0.00004013      -0.00014020
Cu      11.21624326       6.25690500      13.59279500  T       0.00010082       0.00008484       0.00001739
Cu       1.28051723       8.75833053      13.59125237  T       0.00218107      -0.00193148       0.00341598
Cu       3.78015998       8.73317845      13.61335030  T      -0.00137670      -0.00157718       0.00319139
Cu       6.28651661       8.72387144      13.60821622  T       0.00046675       0.00077873      -0.00101058
Cu       8.76410365       8.72911929      13.61200989  T       0.00061923       0.00022709      -0.00021786
Cu      11.26945281       8.74931624      13.59760891  T       0.00058050       0.00031204      -0.00016521
Cu       1.24531298      11.26392086      13.58759056  T      -0.00009844      -0.00068271       0.00067592
Cu       3.74466675      11.25674179      13.56607602  T      -0.00012393      -0.00042471       0.00061880
Cu       6.25691852      11.25705179      13.56041120  T       0.00036438       0.00056919       0.00004912
Cu       8.76263462      11.26202982      13.56765813  T       0.00018931       0.00002426       0.00000313
Cu      11.27153758      11.26210804      13.57475195  T      -0.00020395       0.00029161       0.00000625
Cu      12.51410836       0.00853283      15.36396763  T      -0.00020031       0.00014877       0.00001243
Cu       2.51141237      12.48612448      15.36656516  T      -0.00011048       0.00027482       0.00078134
Cu       5.00950087      12.46670810      15.34306280  T      -0.00009243       0.00031573       0.00044120
Cu       7.50767909      12.49765507      15.33969079  T       0.00006223      -0.00025101      -0.00022847
Cu      10.01552002      12.49350792      15.34985720  T      -0.00006568       0.00001667      -0.00036040
Cu       0.04807809       2.50845542      15.33074278  T       0.00221379       0.00026129       0.00040297
Cu       2.53790282       2.45147468      15.48212914  T       0.00298614       0.00057991       0.00399988
Cu       5.06882632       2.39408957      15.43518921  T       0.00054097       0.00061157       0.00109258
Cu       7.58470761       2.51224000      15.47000654  T       0.00119137      -0.00038944      -0.00007434
Cu      10.10876617       2.44939804      15.44058018  T       0.00140328       0.00016560       0.00027611
Cu      12.42969390       5.01106514      15.31831723  T       0.00094525       0.00025875      -0.00074149
Cu       2.31214885       5.04140587      15.29853868  T      -0.00065503      -0.00738369      -0.01273771
Pd       4.80566631       4.97523525      15.62895265  T       0.00039694       0.00065776      -0.00084263
Y        7.50556391       5.00069082      17.22787435  T      -0.00003843      -0.00067951      -0.00120316
Cu       9.94629595       5.00581828      15.42989897  T       0.00067363       0.00021852       0.00007559
Cu       0.06636949       7.49921922      15.35202346  T      -0.00023191       0.00048710      -0.00051648
Cu       2.54283843       7.51759410      15.44997540  T       0.00295810      -0.00499863       0.01983778
Cu       5.04251659       7.57467709      15.44823308  T       0.00466976       0.00214157      -0.00212029
Cu       7.56645401       7.49240397      15.47916866  T       0.00189407       0.00016243      -0.00018673
Cu      10.11144492       7.55784759      15.44372466  T       0.00024574       0.00005411      -0.00017062
Cu      12.51211232      10.00554494      15.36671474  T      -0.00010116       0.00032617      -0.00040113
Cu       2.50778436      10.00802707      15.36420073  T       0.00005656      -0.00054251       0.00086173
Cu       5.00504772      10.02974599      15.34854362  T       0.00040771       0.00076534      -0.00031661
Cu       7.50626976      10.02729365      15.34343637  T       0.00002002      -0.00019893      -0.00055218
Cu      10.01347091      10.03071667      15.35086200  T       0.00001997       0.00011904      -0.00057296
O        6.16885176       3.40623610      16.66190221  T       0.00060819       0.00029863      -0.00067868
O        6.15026375       6.58765536      16.68108142  T       0.00074888      -0.00173658      -0.00053500
O        9.00589391       6.44832553      16.55365629  T       0.00078362       0.00001082       0.00054381
O        9.02377769       3.56815916      16.55995285  T       0.00142435      -0.00042641       0.00048371
C        3.16035075       4.56735426      16.99790862  T      -0.00498064       0.01174584      -0.00269212
O        2.95656951       3.36412461      17.36404550  T      -0.00002639       0.01178960       0.00650153
H        3.73326032       5.26016400      19.02192014  T      -0.02234077       0.02563118       0.00026308
C        3.30630948       5.62477673      18.05767485  T      -0.01546659       0.03798865      -0.02507607
O        2.97854224       6.80123083      17.90779265  T      -0.00437598       0.01918132      -0.05116953
109
Lattice="12.51515363 0.0 0.0 0.0 12.51515363 0.0 0.0 0.0 25.30973" Properties=species:S:1:pos:R:3:move_mask:L:1:forces:R:3 energy=-453.26011695 stress="0.007562463384311544 3.6335482146114216e-05 4.9205461480667245e-05 3.6335482146114216e-05 0.007915639521482649 -0.0001480189430560938 4.9205461480667245e-05 -0.0001480189430560938 0.002200165240358999" free_energy=-453.25917714 pbc="T T T"
Cu       1.25151999       1.25151999      10.00000011  F       0.00219666       0.00230461      -0.06041117
Cu       3.75454997       1.25151999      10.00000011  F      -0.00220650       0.01453523      -0.06078826
Cu       6.25757994       1.25151999      10.00000011  F       0.00402016       0.02366764      -0.05602314
Cu       8.76061004       1.25151999      10.00000011  F       0.00079223       0.00452908      -0.05948977
Cu      11.26364002       1.25151999      10.00000011  F      -0.00745263      -0.00234617      -0.08045361
Cu       1.25151999       3.75454997      10.00000011  F      -0.00416691       0.00057752      -0.06539606
Cu       3.75454997       3.75454997      10.00000011  F       0.01578728      -0.01234811      -0.04444212
Cu       6.25757994       3.75454997      10.00000011  F      -0.01947426      -0.02622678      -0.08115164
Cu       8.76061004       3.75454997      10.00000011  F       0.01277545      -0.01690853      -0.06897175
Cu      11.26364002       3.75454997      10.00000011  F      -0.00141046       0.00294659      -0.05636151
Cu       1.25151999       6.25757994      10.00000011  F      -0.00844364      -0.00112074      -0.07593994
Cu       3.75454997       6.25757994      10.00000011  F       0.02312358       0.01344207      -0.05552564
Cu       6.25757994       6.25757994      10.00000011  F      -0.01882841       0.03362545      -0.08929450
Cu       8.76061004       6.25757994      10.00000011  F       0.00919460       0.02082554      -0.06578231
Cu      11.26364002       6.25757994      10.00000011  F      -0.00155319       0.00450053      -0.06090718
Cu       1.25151999       8.76061004      10.00000011  F       0.00059369       0.00017678      -0.05739955
Cu       3.75454997       8.76061004      10.00000011  F       0.00310488      -0.01288911      -0.06607760
Cu       6.25757994       8.76061004      10.00000011  F      -0.00249100      -0.03478887      -0.05815694
Cu       8.76061004       8.76061004      10.00000011  F      -0.00240533      -0.01569683      -0.05929780
Cu      11.26364002       8.76061004      10.00000011  F       0.00102316      -0.00964082      -0.08204234
Cu       1.25151999      11.26364002      10.00000011  F       0.01327614      -0.00219947      -0.02638785
Cu       3.75454997      11.26364002      10.00000011  F      -0.01980366      -0.00309124      -0.06450874
Cu       6.25757994      11.26364002      10.00000011  F       0.00666355       0.00320301      -0.06362946
Cu       8.76061004      11.26364002      10.00000011  F       0.00147999       0.00728081      -0.05988694
Cu      11.26364002      11.26364002      10.00000011  F      -0.00423963       0.00424110      -0.03727901
Cu       0.00000000       0.00000000      11.76991004  F       0.04145747       0.08644889       0.11329847
Cu       2.50302998       0.00000000      11.76991004  F       0.03238793       0.05463602       0.06172530
Cu       5.00605995       0.00000000      11.76991004  F       0.02909279       0.09848304       0.08226996
Cu       7.50909005       0.00000000      11.76991004  F       0.01452817       0.06611745       0.05902669
Cu      10.01212003       0.00000000      11.76991004  F      -0.02532564       0.07379895       0.06021626
Cu       0.00000000       2.50302998      11.76991004  F      -0.07462977      -0.02638843       0.02084010
Cu       2.50302998       2.50302998      11.76991004  F       0.08195801      -0.02435348       0.02990809
Cu       5.00605995       2.50302998      11.76991004  F      -0.01199544      -0.03426770       0.06802418
Cu       7.50909005       2.50302998      11.76991004  F      -0.01609375      -0.01523373       0.06363022
Cu      10.01212003       2.50302998      11.76991004  F       0.02680167      -0.05667695       0.01371885
Cu       0.00000000       5.00605995      11.76991004  F      -0.13433588      -0.00998087      -0.00837821
Cu       2.50302998       5.00605995      11.76991004  F       0.08731399       0.00579599       0.12093365
Cu       5.00605995       5.00605995      11.76991004  F      -0.02619420      -0.00235324       0.19147309
Cu       7.50909005       5.00605995      11.76991004  F      -0.08971253      -0.00385167       0.11780451
Cu      10.01212003       5.00605995      11.76991004  F       0.01107506       0.00451939       0.01007627
Cu       0.00000000       7.50909005      11.76991004  F      -0.10574850       0.04016976       0.00085007
Cu       2.50302998       7.50909005      11.76991004  F       0.09330505       0.00773212       0.05348214
Cu       5.00605995       7.50909005      11.76991004  F      -0.00434777       0.01647962       0.07611675
Cu       7.50909005       7.50909005      11.76991004  F      -0.00939159       0.02077081       0.07163783
Cu      10.01212003       7.50909005      11.76991004  F       0.02049299       0.05978342       0.02328322
Cu       0.00000000      10.01212003      11.76991004  F       0.01828780      -0.08278806       0.10191537
Cu       2.50302998      10.01212003      11.76991004  F       0.03785816      -0.06691766       0.06180653
Cu       5.00605995      10.01212003      11.76991004  F       0.03148536      -0.12600002       0.08554805