109
Lattice="12.51515363 0.0 0.0 0.0 12.51515363 0.0 0.0 0.0 25.30973" Properties=species:S:1:pos:R:3:move_mask:L:1:forces:R:3 energy=-453.06321978 stress="0.008795010710469607 5.736325746290656e-05 -0.00015880636173117726 5.736325746290656e-05 0.008556781051488927 0.00027606952582989535 -0.00015880636173117726 0.00027606952582989535 0.0035462684676817874" free_energy=-453.06108525 pbc="T T T"
Cu       1.25151999       1.25151999      10.00000011  F      -0.00384793      -0.02883884      -0.06914802
Cu       3.75454997       1.25151999      10.00000011  F      -0.00372449      -0.00635138      -0.06824754
Cu       6.25757994       1.25151999      10.00000011  F      -0.01009014       0.01769033      -0.04322634
Cu       8.76061004       1.25151999      10.00000011  F       0.01624902       0.00833098      -0.04670729
Cu      11.26364002       1.25151999      10.00000011  F      -0.00361026      -0.00811383      -0.07241904
Cu       1.25151999       3.75454997      10.00000011  F      -0.00891296       0.01538303      -0.05428052
Cu       3.75454997       3.75454997      10.00000011  F       0.00736236      -0.01403901      -0.04755091
Cu       6.25757994       3.75454997      10.00000011  F      -0.01496102      -0.01671715      -0.08072806
Cu       8.76061004       3.75454997      10.00000011  F       0.02412298      -0.01875983      -0.06824378
Cu      11.26364002       3.75454997      10.00000011  F      -0.00424558       0.00466112      -0.04191475
Cu       1.25151999       6.25757994      10.00000011  F      -0.00992896      -0.02054690      -0.06713298
Cu       3.75454997       6.25757994      10.00000011  F       0.01428870       0.02292709      -0.05587850
Cu       6.25757994       6.25757994      10.00000011  F      -0.00762882       0.02752050      -0.08201338
Cu       8.76061004       6.25757994      10.00000011  F       0.01126369       0.03008493      -0.07940331
Cu      11.26364002       6.25757994      10.00000011  F      -0.00290517      -0.00914540      -0.05386558
Cu       1.25151999       8.76061004      10.00000011  F      -0.00731566       0.00709488      -0.06015372
Cu       3.75454997       8.76061004      10.00000011  F       0.01919920      -0.01147694      -0.05394019
Cu       6.25757994       8.76061004      10.00000011  F      -0.01103879      -0.01941314      -0.05262350
Cu       8.76061004       8.76061004      10.00000011  F       0.00230097      -0.02058362      -0.04511239
Cu      11.26364002       8.76061004      10.00000011  F      -0.00419658      -0.00608254      -0.06904729
Cu       1.25151999      11.26364002      10.00000011  F      -0.01589788       0.02677837      -0.03557709
Cu       3.75454997      11.26364002      10.00000011  F      -0.00207529       0.00828313      -0.06567028
Cu       6.25757994      11.26364002      10.00000011  F      -0.00617816      -0.00519958      -0.05987467
Cu       8.76061004      11.26364002      10.00000011  F      -0.00239067       0.00327699      -0.06776276
Cu      11.26364002      11.26364002      10.00000011  F       0.02352158       0.01770305      -0.06978622
Cu       0.00000000       0.00000000      11.76991004  F      -0.00311677       0.04498731       0.11618428
Cu       2.50302998       0.00000000      11.76991004  F       0.00812301       0.04266294       0.13477603
Cu       5.00605995       0.00000000      11.76991004  F       0.05810198       0.09260596       0.13646093
Cu       7.50909005       0.00000000      11.76991004  F       0.01214104       0.08338093       0.14159845
Cu      10.01212003       0.00000000      11.76991004  F      -0.02588850       0.09680222       0.13421765
Cu       0.00000000       2.50302998      11.76991004  F      -0.08200231       0.05661447       0.16758420
Cu       2.50302998       2.50302998      11.76991004  F       0.03121095       0.03927709       0.14418916
Cu       5.00605995       2.50302998      11.76991004  F      -0.00668250      -0.04391079       0.11334238
Cu       7.50909005       2.50302998      11.76991004  F      -0.02267751      -0.03699240       0.12384598
Cu      10.01212003       2.50302998      11.76991004  F       0.07831349      -0.05392615       0.09302415
Cu       0.00000000       5.00605995      11.76991004  F      -0.08413558      -0.00087306       0.08605542
Cu       2.50302998       5.00605995      11.76991004  F       0.01811800      -0.01445714       0.14338461
Cu       5.00605995       5.00605995      11.76991004  F      -0.03056842       0.00060477       0.15625070
Cu       7.50909005       5.00605995      11.76991004  F      -0.07243506      -0.00234155       0.13867083
Cu      10.01212003       5.00605995      11.76991004  F       0.05361414       0.01054928       0.08219195
Cu       0.00000000       7.50909005      11.76991004  F      -0.08485141      -0.02089368       0.11428488
Cu       2.50302998       7.50909005      11.76991004  F       0.02614523      -0.02528269       0.14445772
Cu       5.00605995       7.50909005      11.76991004  F       0.00450699       0.04308600       0.11019553
Cu       7.50909005       7.50909005      11.76991004  F      -0.05008264       0.04234482       0.11307071
Cu      10.01212003       7.50909005      11.76991004  F       0.07003029       0.06889495       0.07451634
Cu       0.00000000      10.01212003      11.76991004  F      -0.02714968       0.00100745       0.14144363
Cu       2.50302998      10.01212003      11.76991004  F       0.04168601      -0.00555333       0.13712927
Cu       5.00605995      10.01212003      11.76991004  F       0.03823780      -0.09554250       0.13055487
Cu       7.50909005      10.01212003      11.76991004  F       0.02321801      -0.07261908       0.12268112
Cu      10.01212003      10.01212003      11.76991004  F      -0.03529192      -0.05157739       0.14007993
Cu       1.24529058       1.25857016      13.60191460  T       0.01211525      -0.00889821      -0.00186204
Cu       3.78142138       1.25631643      13.61216049  T      -0.00802286      -0.00554156      -0.01546909
Cu       6.28489702       1.28013114      13.62790769  T       0.00224218      -0.00896892      -0.00275382
Cu       8.76552124       1.28304291      13.62915774  T      -0.00517002      -0.00601010      -0.00191063
Cu      11.26929624       1.28102447      13.61826064  T      -0.00191156      -0.00551691      -0.00866864
Cu       1.21195822       3.75250161      13.60302342  T       0.00139349      -0.00244629      -0.00232419
Cu       3.76091668       3.74808126      13.60335371  T      -0.01638630      -0.00839054      -0.00213589
Cu       6.26858289       3.76436110      13.58759841  T       0.00516507       0.00773672      -0.04488677
Cu       8.74571751       3.76032822      13.55973594  T      -0.00147255       0.00386736      -0.02915406
Cu      11.23866340       3.78049200      13.62916559  T       0.00821565      -0.00664238      -0.02139521
Cu       1.21818663       6.25273257      13.58980921  T      -0.00126545      -0.00923080       0.00214968
Cu       3.76269158       6.26759282      13.60079819  T      -0.01315576       0.00377626      -0.00368803
Cu       6.26545235       6.24695570      13.58980567  T       0.00128078      -0.00513189      -0.05195451
Cu       8.73710358       6.25808793      13.55296153  T      -0.00610759      -0.00383081      -0.03458854
Cu      11.22913324       6.25134427      13.62417299  T       0.00314804       0.00244025       0.00517666
Cu       1.26515100       8.77850434      13.58043930  T       0.00803057       0.00694724      -0.00038623
Cu       3.78391815       8.75404197      13.61842768  T      -0.01551786       0.00870923      -0.02573612
Cu       6.28165347       8.73139292      13.62689277  T      -0.00346413       0.01096363      -0.00424116
Cu       8.75688553       8.73773435      13.62521120  T      -0.00427412       0.01011786      -0.00040051
Cu      11.25229854       8.75914364      13.60654780  T       0.00780046       0.00636379      -0.01412713
Cu       1.24879432      11.27994426      13.61146422  T       0.00383628      -0.00714749      -0.01415814
Cu       3.74560877      11.26343665      13.58663562  T      -0.02347598      -0.00268342      -0.00543020
Cu       6.25789946      11.26168866      13.57864509  T      -0.00545659       0.00211026      -0.00998236
Cu       8.76451903      11.26621376      13.58375310  T      -0.00755371       0.00538139      -0.00296749
Cu      11.27308921      11.28151717      13.58873102  T       0.02115851      -0.00480385       0.00131931
Cu      12.51491809      12.49040742      15.42919865  T      -0.01161543       0.01260331      -0.07528167
Cu       2.50699828       0.01005292      15.40117647  T      -0.00627493       0.02024545      -0.08404932
Cu       5.00294130      12.48100240      15.37794872  T       0.02157398       0.00861118      -0.04986394
Cu       7.50854226      12.49658903      15.37433095  T      -0.00670067       0.01380544      -0.06364417
Cu      10.01364600      12.50435768      15.37967738  T       0.00112463       0.01608628      -0.05407504
Cu       0.06033418       2.44553273      15.48037619  T       0.03874607      -0.01711658      -0.07707819
Cu       2.53171909       2.50691405      15.36666235  T      -0.02147843       0.00055470      -0.03849870
Cu       5.00215184       2.41686990      15.48849049  T      -0.04190085      -0.06973448      -0.09709413
Cu       7.54999183       2.51960179      15.50109979  T       0.02681869      -0.08571861      -0.12390186
Cu      10.08257045       2.47711935      15.46700151  T       0.07265275      -0.05132855      -0.07944841
Cu      12.48121904       5.12059175      15.45664047  T       0.01865711       0.02101341      -0.10886967
Cu       2.43117647       5.01290912      15.34797289  T      -0.02899948       0.01037205      -0.07330156
Pd       4.93343914       5.00467077      15.53482222  T       0.01930654      -0.00546106      -0.06890720
Y        7.47877810       5.01866146      17.26675718  T      -0.01966466      -0.03313469       0.07566176
Cu       9.87392770       5.03081718      15.41194602  T       0.07597375      -0.00687493      -0.14495086
Cu       0.03875805       7.57997338      15.36746796  T       0.00875653      -0.01145575      -0.04456421
Cu       2.50606615       7.50799210      15.36788861  T      -0.00820468      -0.01172750      -0.04452273
Cu       4.98638700       7.58953833      15.48985519  T      -0.05089242       0.06775056      -0.09381220
Cu       7.53597010       7.49678653      15.49387032  T       0.00211963       0.07323507      -0.13285496
Cu      10.08122595       7.56330019      15.46549609  T       0.06399906       0.05853830      -0.08373641
Cu       0.00069709      10.02700342      15.39964397  T      -0.00731234      -0.01896707      -0.09182304
Cu       2.50786796      10.01046615      15.40083327  T       0.00052925      -0.00992227      -0.09949349
Cu       5.00700935      10.04327738      15.38319442  T       0.01561214      -0.00760284      -0.05402582
Cu       7.51171022      10.03162602      15.37361747  T      -0.00133216      -0.00971165      -0.06305513
Cu      10.02123494      10.04075720      15.37979962  T      -0.01048728      -0.00728645      -0.06349841
O        6.14215518       3.43019260      16.65854817  T      -0.09642142       0.05165597       0.14088266
O        6.12720421       6.58983837      16.67119088  T      -0.10325549      -0.02200904       0.11689391
O        8.95507376       6.44466697      16.54712816  T       0.07520324       0.09116793       0.11269891
O        8.96551440       3.59483433      16.56563463  T       0.07428105      -0.03690362       0.10011501
C       12.00118944       3.19489871      17.16014753  T      -0.15209146       0.03849173       0.47823479
O       12.09681885       4.45367686      17.32984801  T      -0.06766452      -0.42728921       0.00236711
H       11.08911670       3.16413070      19.19920113  T       0.11342323      -0.23610382      -0.22169095
C       11.45575038       2.44783227      18.40142325  T       0.10220140       0.53070130      -0.17315421
O       11.43664725       1.24061366      18.54186568  T       0.00424059      -0.13297005      -0.06196536
109
Lattice="12.51515363 0.0 0.0 0.0 12.51515363 0.0 0.0 0.0 25.30973" Properties=species:S:1:pos:R:3:move_mask:L:1:forces:R:3 energy=-453.07092178 stress="0.008758720903687275 4.759095783205677e-05 -0.00015185880060995582 4.759095783205677e-05 0.008533048293498106 0.00026559299048286303 -0.00015185880060995582 0.00026559299048286303 0.0034774074578731995" free_energy=-453.06871278 pbc="T T T"
Cu       1.25151999       1.25151999      10.00000011  F      -0.00355830      -0.02886648      -0.06883088
Cu       3.75454997       1.25151999      10.00000011  F      -0.00320226      -0.00655237      -0.06865346
Cu       6.25757994       1.25151999      10.00000011  F      -0.01002556       0.01730829      -0.04360680
Cu       8.76061004       1.25151999      10.00000011  F       0.01587550       0.00790119      -0.04708963
Cu      11.26364002       1.25151999      10.00000011  F      -0.00386538      -0.00812975      -0.07259751
Cu       1.25151999       3.75454997      10.00000011  F      -0.00882985       0.01567787      -0.05470723
Cu       3.75454997       3.75454997      10.00000011  F       0.00765424      -0.01395083      -0.04782987
Cu       6.25757994       3.75454997      10.00000011  F      -0.01505959      -0.01665842      -0.08091132
Cu       8.76061004       3.75454997      10.00000011  F       0.02402638      -0.01865599      -0.06863680
Cu      11.26364002       3.75454997      10.00000011  F      -0.00424293       0.00496868      -0.04229375
Cu       1.25151999       6.25757994      10.00000011  F      -0.00976352      -0.02031443      -0.06736131
Cu       3.75454997       6.25757994      10.00000011  F       0.01445127       0.02320510      -0.05583822
Cu       6.25757994       6.25757994      10.00000011  F      -0.00764628       0.02781033      -0.08204140
Cu       8.76061004       6.25757994      10.00000011  F       0.01120736       0.03035558      -0.07963019
Cu      11.26364002       6.25757994      10.00000011  F      -0.00293533      -0.00900872      -0.05405806
Cu       1.25151999       8.76061004      10.00000011  F      -0.00702831       0.00707336      -0.06018248
Cu       3.75454997       8.76061004      10.00000011  F       0.01942132      -0.01136639      -0.05401440
Cu       6.25757994       8.76061004      10.00000011  F      -0.01104130      -0.01921754      -0.05264100
Cu       8.76061004       8.76061004      10.00000011  F       0.00219022      -0.02035884      -0.04511942
Cu      11.26364002       8.76061004      10.00000011  F      -0.00437037      -0.00611205      -0.06910480
Cu       1.25151999      11.26364002      10.00000011  F      -0.01556889       0.02634710      -0.03627209
Cu       3.75454997      11.26364002      10.00000011  F      -0.00169105       0.00801617      -0.06683689
Cu       6.25757994      11.26364002      10.00000011  F      -0.00606010      -0.00535436      -0.06089254
Cu       8.76061004      11.26364002      10.00000011  F      -0.00272853       0.00309899      -0.06937030
Cu      11.26364002      11.26364002      10.00000011  F       0.02321124       0.01733388      -0.07016629
Cu       0.00000000       0.00000000      11.76991004  F      -0.00304325       0.04481844       0.11562005
Cu       2.50302998       0.00000000      11.76991004  F       0.00861479       0.04229473       0.13357088
Cu       5.00605995       0.00000000      11.76991004  F       0.05817699       0.09205811       0.13540497
Cu       7.50909005       0.00000000      11.76991004  F       0.01217782       0.08287955       0.14021467
Cu      10.01212003       0.00000000      11.76991004  F      -0.02637966       0.09615568       0.13358129
Cu       0.00000000       2.50302998      11.76991004  F      -0.08172579       0.05664044       0.16706923
Cu       2.50302998       2.50302998      11.76991004  F       0.03143044       0.03938498       0.14335829
Cu       5.00605995       2.50302998      11.76991004  F      -0.00673408      -0.04420400       0.11245548
Cu       7.50909005       2.50302998      11.76991004  F      -0.02284941      -0.03763932       0.12223824
Cu      10.01212003       2.50302998      11.76991004  F       0.07818672      -0.05419642       0.09203918
Cu       0.00000000       5.00605995      11.76991004  F      -0.08392032      -0.00024913       0.08497586
Cu       2.50302998       5.00605995      11.76991004  F       0.01810509      -0.01423713       0.14319616
Cu       5.00605995       5.00605995      11.76991004  F      -0.03139692       0.00098868       0.15499862
Cu       7.50909005       5.00605995      11.76991004  F      -0.07234348      -0.00210068       0.13627940
Cu      10.01212003       5.00605995      11.76991004  F       0.05408637       0.01113891       0.08081803
Cu       0.00000000       7.50909005      11.76991004  F      -0.08459051      -0.02109137       0.11422636
Cu       2.50302998       7.50909005      11.76991004  F       0.02625396      -0.02520839       0.14365884
Cu       5.00605995       7.50909005      11.76991004  F       0.00426063       0.04345395       0.10925848
Cu       7.50909005       7.50909005      11.76991004  F      -0.05032623       0.04344759       0.11149949
Cu      10.01212003       7.50909005      11.76991004  F       0.07013640       0.06926515       0.07385007
Cu       0.00000000      10.01212003      11.76991004  F      -0.02707656       0.00055509       0.14036318
Cu       2.50302998      10.01212003      11.76991004  F       0.04186621      -0.00582513       0.13563719
Cu       5.00605995      10.01212003      11.76991004  F       0.03860590      -0.09542053       0.12931770
Cu       7.50909005      10.01212003      11.76991004  F       0.02304784      -0.07266293       0.12149954
Cu      10.01212003      10.01212003      11.76991004  F      -0.03562204      -0.05155161       0.13941068
Cu       1.24540747       1.25848430      13.60189663  T       0.01161570      -0.00819580      -0.00589032
Cu       3.78134404       1.25626299      13.61201116  T      -0.00737829      -0.00572762      -0.01816785
Cu       6.28491867       1.28004453      13.62788112  T       0.00158874      -0.00821064      -0.00673051
Cu       8.76547131       1.28298497      13.62913927  T      -0.00407022      -0.00565940      -0.00581567
Cu      11.26927772       1.28097115      13.61817711  T      -0.00114341      -0.00578514      -0.01243790
Cu       1.21197173       3.75247809      13.60300089  T       0.00069350      -0.00347914      -0.00360036
Cu       3.76075849       3.74800029      13.60333296  T      -0.01462299      -0.00759448      -0.00411083
Cu       6.26863270       3.76443569      13.58716510  T       0.00421832       0.00684656      -0.04166956
Cu       8.74570324       3.76036551      13.55945449  T      -0.00146172       0.00302218      -0.02758914
Cu      11.23874262       3.78042793      13.62895931  T       0.00903627      -0.00675927      -0.02161774
Cu       1.21817437       6.25264359      13.58982996  T      -0.00032340      -0.00668488      -0.00229450
Cu       3.76256467       6.26762924      13.60076276  T      -0.01156420       0.00376495      -0.00570550
Cu       6.26546474       6.24690614      13.58930428  T       0.00036445      -0.00398465      -0.04827719
Cu       8.73704464       6.25805089      13.55262770  T      -0.00620379      -0.00242159      -0.03276749
Cu      11.22916365       6.25136780      13.62422285  T       0.00263951       0.00352839       0.00072325
Cu       1.26522847       8.77857129      13.58043550  T       0.00750575       0.00490948      -0.00372858
Cu       3.78376847       8.75412594      13.61817939  T      -0.01475576       0.00808185      -0.02801530
Cu       6.28162005       8.73149867      13.62685202  T      -0.00411522       0.01026164      -0.00805897
Cu       8.75684436       8.73783196      13.62520715  T      -0.00326830       0.00947964      -0.00482110
Cu      11.25237388       8.75920509      13.60641138  T       0.00788187       0.00581391      -0.01765982
Cu       1.24883136      11.27987530      13.61132780  T       0.00326391      -0.00641700      -0.01583011
Cu       3.74538237      11.26341074      13.58658323  T      -0.02050987      -0.00251183      -0.00748495
Cu       6.25784677      11.26170906      13.57854866  T      -0.00576078       0.00155161      -0.01228209
Cu       8.76444619      11.26626557      13.58372450  T      -0.00668213       0.00495960      -0.00535139
Cu      11.27329333      11.28147086      13.58874392  T       0.01892701      -0.00449280      -0.00141817
Cu      12.51480596      12.49052894      15.42847251  T      -0.01132965       0.01322731      -0.06907666
Cu       2.50693783       0.01024828      15.40036555  T      -0.00504196       0.01867197      -0.08021773
Cu       5.00314943      12.48108550      15.37746758  T       0.01990870       0.00575326      -0.04824815
Cu       7.50847768      12.49672219      15.37371693  T      -0.00641240       0.01083078      -0.06067689
Cu      10.01365689      12.50451287      15.37915549  T       0.00056387       0.01311084      -0.05078736
Cu       0.06070801       2.44536766      15.47963259  T       0.02532401      -0.00648547      -0.04095210
Cu       2.53151184       2.50691943      15.36629081  T      -0.02037174       0.00203036      -0.03697553
Cu       5.00174760       2.41619709      15.48755377  T      -0.02975030      -0.05502535      -0.08404173
Cu       7.55025064       2.51877466      15.49990441  T       0.02195833      -0.07100788      -0.10734669
Cu      10.08327143       2.47662413      15.46623488  T       0.06339588      -0.04341654      -0.06993947
Cu      12.48139913       5.12079450      15.45559011  T       0.01654242       0.01512944      -0.10064766
Cu       2.43089663       5.01300911      15.34726548  T      -0.02530451       0.00915095      -0.06905210
Pd       4.93362537       5.00461808      15.53415734  T       0.02177257      -0.00357297      -0.05741148
Y        7.47858837       5.01834182      17.26748711  T      -0.01285236      -0.02430819       0.06906955
Cu       9.87466084       5.03075085      15.41054740  T       0.06385316      -0.00386998      -0.12763745
Cu       0.03884253       7.57986287      15.36703795  T       0.00985232      -0.01077187      -0.04263585
Cu       2.50598706       7.50787896      15.36745910  T      -0.00893084      -0.01143923      -0.04290739
Cu       4.98589591       7.59019200      15.48894986  T      -0.03930522       0.05437792      -0.08163580
Cu       7.53599062       7.49749313      15.49258864  T       0.00035792       0.05837916      -0.11574245
Cu      10.08184345       7.56386500      15.46468820  T       0.05314857       0.04700313      -0.07232581
Cu       0.00062651      10.02682032      15.39875788  T      -0.00686269      -0.01820808      -0.08801012
Cu       2.50787309      10.01037041      15.39987328  T       0.00103745      -0.00958860      -0.09510949
Cu       5.00716003      10.04320404      15.38267329  T       0.01473159      -0.00546576      -0.05256995
Cu       7.51169733      10.03153241      15.37300902  T      -0.00164732      -0.00746766      -0.06043448
Cu      10.02113369      10.04068686      15.37918687  T      -0.01016580      -0.00501196      -0.06137021
O        6.14122481       3.43069096      16.65990730  T      -0.09940199       0.04268249       0.12507053
O        6.12620800       6.58962599      16.67231869  T      -0.10504550      -0.01526185       0.10073425
O        8.95579938       6.44554654      16.54821546  T       0.07410063       0.09050088       0.09824373
O        8.96623114       3.59447828      16.56660045  T       0.07520233      -0.03612525       0.08756258
C       11.99972191       3.19527016      17.16476175  T      -0.12484468      -0.17759359       0.32178758
O       12.09616606       4.44955412      17.32987079  T      -0.03861468      -0.15150586       0.02754575
H       11.09021115       3.16185269      19.19706220  T       0.08113647      -0.16126314      -0.14822476
C       11.45673645       2.45295272      18.39975256  T       0.08128060      -0.02166574      -0.10382069
O       11.43668817       1.23933073      18.54126786  T       0.01647898       0.27066589      -0.11746944
109
Lattice="12.51515363 0.0 0.0 0.0 12.51515363 0.0 0.0 0.0 25.30973" Properties=species:S:1:pos:R:3:move_mask:L:1:forces:R:3 energy=-453.07646755 stress="0.008701689045392917 4.471050137046164e-05 -0.00014139618382827423 4.471050137046164e-05 0.008408310204447591 0.00027653243983723474 -0.00014139618382827423 0.00027653243983723474 0.0033934192019886454" free_energy=-453.0742293 pbc="T T T"
Cu       1.25151999       1.25151999      10.00000011  F      -0.00383794      -0.02855898      -0.06946467
Cu       3.75454997       1.25151999      10.00000011  F      -0.00338646      -0.00634960      -0.06967248
Cu       6.25757994       1.25151999      10.00000011  F      -0.00974687       0.01740065      -0.04471385
Cu       8.76061004       1.25151999      10.00000011  F       0.01614368       0.00796236      -0.04778401
Cu      11.26364002       1.25151999      10.00000011  F      -0.00381569      -0.00791477      -0.07311800
Cu       1.25151999       3.75454997      10.00000011  F      -0.00919439       0.01595758      -0.05495283
Cu       3.75454997       3.75454997      10.00000011  F       0.00737184      -0.01372385      -0.04856070
Cu       6.25757994       3.75454997      10.00000011  F      -0.01494062      -0.01648459      -0.08182469
Cu       8.76061004       3.75454997      10.00000011  F       0.02448387      -0.01847652      -0.06920045
Cu      11.26364002       3.75454997      10.00000011  F      -0.00404446       0.00530004      -0.04241457
Cu       1.25151999       6.25757994      10.00000011  F      -0.01012508      -0.02065309      -0.06762381
Cu       3.75454997       6.25757994      10.00000011  F       0.01411637       0.02284177      -0.05661480
Cu       6.25757994       6.25757994      10.00000011  F      -0.00746431       0.02755812      -0.08297245
Cu       8.76061004       6.25757994      10.00000011  F       0.01171065       0.03010489      -0.08019760
Cu      11.26364002       6.25757994      10.00000011  F      -0.00279052      -0.00931752      -0.05411381
Cu       1.25151999       8.76061004      10.00000011  F      -0.00743475       0.00658984      -0.06085266
Cu       3.75454997       8.76061004      10.00000011  F       0.01915348      -0.01185612      -0.05513389
Cu       6.25757994       8.76061004      10.00000011  F      -0.01078402      -0.01971320      -0.05372963
Cu       8.76061004       8.76061004      10.00000011  F       0.00263684      -0.02078919      -0.04574689
Cu      11.26364002       8.76061004      10.00000011  F      -0.00428023      -0.00657326      -0.06948761
Cu       1.25151999      11.26364002      10.00000011  F      -0.01588317       0.02608576      -0.03713546
Cu       3.75454997      11.26364002      10.00000011  F      -0.00195241       0.00793536      -0.06803856
Cu       6.25757994      11.26364002      10.00000011  F      -0.00578457      -0.00541691      -0.06216130
Cu       8.76061004      11.26364002      10.00000011  F      -0.00230328       0.00303222      -0.07037249
Cu      11.26364002      11.26364002      10.00000011  F       0.02321313       0.01707120      -0.07057853
Cu       0.00000000       0.00000000      11.76991004  F      -0.00321101       0.04512383       0.11529671
Cu       2.50302998       0.00000000      11.76991004  F       0.00797438       0.04243208       0.13245255
Cu       5.00605995       0.00000000      11.76991004  F       0.05788700       0.09217744       0.13464957
Cu       7.50909005       0.00000000      11.76991004  F       0.01288154       0.08294642       0.13917770
Cu      10.01212003       0.00000000      11.76991004  F      -0.02589819       0.09595122       0.13307016
Cu       0.00000000       2.50302998      11.76991004  F      -0.08163134       0.05687232       0.16677098
Cu       2.50302998       2.50302998      11.76991004  F       0.03062334       0.03998032       0.14278025
Cu       5.00605995       2.50302998      11.76991004  F      -0.00723055      -0.04402655       0.11174250
Cu       7.50909005       2.50302998      11.76991004  F      -0.02222005      -0.03779278       0.12085091
Cu      10.01212003       2.50302998      11.76991004  F       0.07884325      -0.05410464       0.09139153
Cu       0.00000000       5.00605995      11.76991004  F      -0.08396660      -0.00016602       0.08464283
Cu       2.50302998       5.00605995      11.76991004  F       0.01715827      -0.01454725       0.14308849
Cu       5.00605995       5.00605995      11.76991004  F      -0.03257321       0.00078051       0.15403732
Cu       7.50909005       5.00605995      11.76991004  F      -0.07154205      -0.00230400       0.13418139
Cu      10.01212003       5.00605995      11.76991004  F       0.05530530       0.01121372       0.07998515
Cu       0.00000000       7.50909005      11.76991004  F      -0.08469350      -0.02190730       0.11415543
Cu       2.50302998       7.50909005      11.76991004  F       0.02532085      -0.02610278       0.14313643
Cu       5.00605995       7.50909005      11.76991004  F       0.00370842       0.04299699       0.10856404
Cu       7.50909005       7.50909005      11.76991004  F      -0.04956011       0.04369903       0.11025687
Cu      10.01212003       7.50909005      11.76991004  F       0.07088612       0.06892263       0.07337056
Cu       0.00000000      10.01212003      11.76991004  F      -0.02731154       0.00011979       0.13937107
Cu       2.50302998      10.01212003      11.76991004  F       0.04086713      -0.00605809       0.13454009
Cu       5.00605995      10.01212003      11.76991004  F       0.03869991      -0.09556448       0.12855509