109
Lattice="12.51515363 0.0 0.0 0.0 12.51515363 0.0 0.0 0.0 25.30973" Properties=species:S:1:pos:R:3:move_mask:L:1:forces:R:3 energy=-453.46809039 stress="0.00854824030771427 2.6969436102759044e-06 -0.00041887216508308694 2.6969436102759044e-06 0.009097939416143553 -4.101133367380616e-06 -0.00041887216508308694 -4.101133367380616e-06 0.003416036240291143" free_energy=-453.47475933 pbc="T T T"
Cu       1.25151999       1.25151999      10.00000011  F       0.00092386      -0.01740707      -0.07540912
Cu       3.75454997       1.25151999      10.00000011  F      -0.00259856       0.00321182      -0.06674119
Cu       6.25757994       1.25151999      10.00000011  F       0.00759586       0.01825952      -0.04815359
Cu       8.76061004       1.25151999      10.00000011  F       0.00210282       0.01257905      -0.06480309
Cu      11.26364002       1.25151999      10.00000011  F      -0.00821610      -0.01052277      -0.07266094
Cu       1.25151999       3.75454997      10.00000011  F       0.00650789       0.01079423      -0.06489763
Cu       3.75454997       3.75454997      10.00000011  F       0.01132294      -0.00409838      -0.04926527
Cu       6.25757994       3.75454997      10.00000011  F      -0.00811635      -0.02262587      -0.09073177
Cu       8.76061004       3.75454997      10.00000011  F       0.00520786      -0.02495240      -0.07368415
Cu      11.26364002       3.75454997      10.00000011  F      -0.01360542      -0.00094730      -0.05635154
Cu       1.25151999       6.25757994      10.00000011  F       0.00621386      -0.00902885      -0.06660707
Cu       3.75454997       6.25757994      10.00000011  F       0.01236365       0.00488585      -0.04967230
Cu       6.25757994       6.25757994      10.00000011  F      -0.00787064       0.02482233      -0.09330985
Cu       8.76061004       6.25757994      10.00000011  F       0.00366951       0.02557615      -0.07460237
Cu      11.26364002       6.25757994      10.00000011  F      -0.01293775       0.00234799      -0.05761347
Cu       1.25151999       8.76061004      10.00000011  F       0.00134894       0.01369139      -0.07412514
Cu       3.75454997       8.76061004      10.00000011  F      -0.00323601      -0.00562330      -0.06573812
Cu       6.25757994       8.76061004      10.00000011  F       0.00737954      -0.02276439      -0.04605723
Cu       8.76061004       8.76061004      10.00000011  F       0.00299709      -0.01537183      -0.06306301
Cu      11.26364002       8.76061004      10.00000011  F      -0.00833758       0.00725443      -0.07157649
Cu       1.25151999      11.26364002      10.00000011  F      -0.00177570       0.00190628      -0.02029207
Cu       3.75454997      11.26364002      10.00000011  F      -0.00885090       0.00166485      -0.07116176
Cu       6.25757994      11.26364002      10.00000011  F      -0.00012531       0.00232647      -0.07942739
Cu       8.76061004      11.26364002      10.00000011  F      -0.00329279       0.00203681      -0.07144980
Cu      11.26364002      11.26364002      10.00000011  F       0.00884408       0.00182845      -0.06642504
Cu       0.00000000       0.00000000      11.76991004  F      -0.02572173       0.03549927       0.15493333
Cu       2.50302998       0.00000000      11.76991004  F       0.02873325       0.03043879       0.10893743
Cu       5.00605995       0.00000000      11.76991004  F       0.07299703       0.09542550       0.11990981
Cu       7.50909005       0.00000000      11.76991004  F       0.02747799       0.06870867       0.14059601
Cu      10.01212003       0.00000000      11.76991004  F      -0.02073964       0.07788551       0.14757183
Cu       0.00000000       2.50302998      11.76991004  F      -0.07995658       0.05611313       0.14736258
Cu       2.50302998       2.50302998      11.76991004  F       0.02317594       0.05944987       0.13911279
Cu       5.00605995       2.50302998      11.76991004  F      -0.05141374      -0.00059836       0.14291126
Cu       7.50909005       2.50302998      11.76991004  F      -0.03271029      -0.03472212       0.12028011
Cu      10.01212003       2.50302998      11.76991004  F       0.01991517      -0.09497390       0.04773877
Cu       0.00000000       5.00605995      11.76991004  F      -0.13081679       0.00192157       0.08998994
Cu       2.50302998       5.00605995      11.76991004  F       0.00116768       0.00251649       0.12123058
Cu       5.00605995       5.00605995      11.76991004  F      -0.07843561       0.00171892       0.25362940
Cu       7.50909005       5.00605995      11.76991004  F      -0.10535479       0.00155678       0.15114943
Cu      10.01212003       5.00605995      11.76991004  F      -0.01804899       0.00179462       0.04822595
Cu       0.00000000       7.50909005      11.76991004  F      -0.08280517      -0.05819539       0.14790883
Cu       2.50302998       7.50909005      11.76991004  F       0.02246654      -0.05975667       0.13971695
Cu       5.00605995       7.50909005      11.76991004  F      -0.05176466      -0.00316710       0.14361352
Cu       7.50909005       7.50909005      11.76991004  F      -0.03475479       0.03014113       0.12166254
Cu      10.01212003       7.50909005      11.76991004  F       0.02001890       0.09139373       0.04962706
Cu       0.00000000      10.01212003      11.76991004  F      -0.02617508      -0.03233530       0.15224508
Cu       2.50302998      10.01212003      11.76991004  F       0.02964888      -0.02833056       0.10848215
Cu       5.00605995      10.01212003      11.76991004  F       0.07213536      -0.09435234       0.11778164
Cu       7.50909005      10.01212003      11.76991004  F       0.02874682      -0.06914632       0.13935922
Cu      10.01212003      10.01212003      11.76991004  F      -0.02398986      -0.07727576       0.14638640
Cu       1.25676672       1.24815217      13.58454377  T      -0.00406190      -0.01868326       0.00011641
Cu       3.78108973       1.26294958      13.60089588  T      -0.00766639      -0.00860895      -0.01058382
Cu       6.28909247       1.28347619      13.62057546  T       0.00452460      -0.01294727      -0.01288401
Cu       8.76874064       1.28285994      13.62731064  T       0.00045084      -0.01450154      -0.00663013
Cu      11.25635295       1.26599452      13.62145953  T       0.00925012      -0.01379898      -0.01868299
Cu       1.21933978       3.77210147      13.59537305  T       0.00513218       0.00053001       0.00027822
Cu       3.73358571       3.77703169      13.62622257  T      -0.01469433       0.00053559      -0.00215465
Cu       6.23126758       3.78136156      13.60010015  T      -0.00022214       0.01232435      -0.02272848
Cu       8.71763876       3.76344762      13.55850133  T      -0.00052558       0.00193872      -0.04823230
Cu      11.18830067       3.75446674      13.60597605  T       0.01249499      -0.00543726      -0.01099545
Cu       1.21855320       6.24140861      13.59479675  T       0.00558227      -0.00154981       0.00037790
Cu       3.73282829       6.23595989      13.62669055  T      -0.01451525      -0.00866496      -0.00186081
Cu       6.23025598       6.22954099      13.60035780  T      -0.00019375      -0.01238956      -0.02222543
Cu       8.71682278       6.24829232      13.55860054  T      -0.00030793      -0.00525377      -0.04804694
Cu      11.18750008       6.25750222      13.60660146  T       0.01318460       0.00549237      -0.01337096
Cu       1.25617000       8.76512701      13.58451872  T      -0.00403217       0.01477256      -0.00029635
Cu       3.78086683       8.74979920      13.60103028  T      -0.00674782       0.00844990      -0.00988081
Cu       6.28872165       8.72755702      13.62068759  T       0.00478185       0.01612995      -0.01297646
Cu       8.76809748       8.72849916      13.62781582  T      -0.00047643       0.01932588      -0.00723638
Cu      11.25544197       8.74629684      13.62139702  T       0.00901073       0.01618429      -0.01618939
Cu       1.25368862      11.26419331      13.60857258  T      -0.01377870       0.00162910      -0.00696251
Cu       3.74966593      11.26391911      13.57936540  T      -0.01596773       0.00142918      -0.00595986
Cu       6.26503810      11.26312414      13.57627964  T      -0.00136078       0.00209492      -0.01506133
Cu       8.77296913      11.26328809      13.58555034  T      -0.00885738       0.00155198      -0.00941070
Cu      11.27628258      11.26371899      13.59331157  T       0.01869149       0.00063713      -0.00121197
Cu       0.00918550       0.00828090      15.40279908  T      -0.01042935       0.00784907      -0.08790867
Cu       2.51693794       0.00271441      15.39233907  T       0.00557235       0.00890877      -0.08546534
Cu       5.01298258      12.48157460      15.36606757  T       0.00642129       0.00163978      -0.04964588
Cu       7.51845151      12.49925901      15.36860741  T       0.00298625      -0.00421815      -0.05750323
Cu      10.02470051      12.50178932      15.38632169  T      -0.01464586      -0.00288217      -0.05467062
Cu       0.03684499       2.51564913      15.37347219  T       0.02076423       0.01219014      -0.04302155
Cu       2.50315500       2.49003637      15.35167241  T       0.00896841       0.01345000      -0.04165379
Cu       4.96799624       2.42168811      15.44670842  T      -0.04633118      -0.04862003      -0.08121827
Cu       7.55769590       2.53513210      15.47003261  T       0.04279646      -0.11138340      -0.15174607
Cu      10.08417064       2.48104736      15.49629196  T       0.05542350      -0.05723438      -0.08312661
Cu      12.26450289       5.00563506      15.37677511  T       0.03048949       0.00125143      -0.05229713
Cu       2.13173665       5.00779192      15.54228353  T      -0.00336571       0.00056985      -0.09376247
Pd       4.65101330       5.00577098      15.78579528  T      -0.02018573       0.00004580      -0.07722914
Y        7.39410382       5.00460894      17.35519621  T       0.01082501      -0.00152729       0.05301273
Cu       9.79899121       5.00613079      15.47595027  T       0.11474914       0.00092734      -0.14775683
Cu       0.03487235       7.49640957      15.37280072  T       0.02183340      -0.01347714      -0.04309560
Cu       2.50185180       7.52556425      15.35129226  T       0.00805812      -0.01177408      -0.04214887
Cu       4.96795281       7.58992956      15.44716046  T      -0.04977851       0.04744226      -0.08201810
Cu       7.55467512       7.47404086      15.47089845  T       0.04239740       0.11422021      -0.15234098
Cu      10.08175284       7.53130783      15.49643951  T       0.05773165       0.06146890      -0.08452875
Cu       0.00904871      10.00413986      15.40275504  T      -0.01013674      -0.00678951      -0.08800321
Cu       2.51684145      10.01233716      15.39246486  T       0.00589506      -0.00801499      -0.08754000
Cu       5.01291813      10.04517492      15.36627511  T       0.00910374      -0.00477194      -0.05060886
Cu       7.51827355      10.02592799      15.36888885  T       0.00369960      -0.00126748      -0.05824857
Cu      10.02466159      10.02591573      15.38642697  T      -0.01399611       0.00073875      -0.05576392
O        6.16370678       3.42450597      16.53008863  T      -0.10337963       0.04369290       0.09606176
O        6.16002082       6.58702810      16.53542494  T      -0.10648463      -0.04354457       0.10007491
O        8.93083791       6.44716900      16.58927645  T       0.10261332       0.07466045       0.11705054
O        8.93345508       3.56449334      16.58972949  T       0.10071183      -0.07616516       0.11692972
C        3.74783246       5.00779568      17.57021755  T       0.08611593      -0.00550220       0.47239635
O        2.47907309       5.02553115      17.54156010  T       0.39945663      -0.00890070       0.09132817
H        3.83709179       4.96909244      19.72460834  T       0.20224609       0.00779073      -0.19217022
C        4.49872078       4.99029248      18.82828627  T      -0.15694931       0.00359033      -0.22299713
O        5.76701671       4.98975058      18.98447869  T      -0.37418217       0.00289230      -0.04411839
109
Lattice="12.51515363 0.0 0.0 0.0 12.51515363 0.0 0.0 0.0 25.30973" Properties=species:S:1:pos:R:3:move_mask:L:1:forces:R:3 energy=-453.4841325 stress="0.008402569008451731 3.8861071364848124e-06 -0.0004602397516147803 3.8861071364848124e-06 0.009066305456852164 -3.1774274658046494e-06 -0.0004602397516147803 -3.1774274658046494e-06 0.003341599091195527" free_energy=-453.49084164 pbc="T T T"
Cu       1.25151999       1.25151999      10.00000011  F       0.00083462      -0.01723695      -0.07530813
Cu       3.75454997       1.25151999      10.00000011  F      -0.00268997       0.00347559      -0.06644245
Cu       6.25757994       1.25151999      10.00000011  F       0.00743977       0.01838184      -0.04861702
Cu       8.76061004       1.25151999      10.00000011  F       0.00238566       0.01256792      -0.06515317
Cu      11.26364002       1.25151999      10.00000011  F      -0.00797545      -0.01093937      -0.07307791
Cu       1.25151999       3.75454997      10.00000011  F       0.00662097       0.01059542      -0.06492247
Cu       3.75454997       3.75454997      10.00000011  F       0.01122641      -0.00406343      -0.04923119
Cu       6.25757994       3.75454997      10.00000011  F      -0.00847535      -0.02264023      -0.09108862
Cu       8.76061004       3.75454997      10.00000011  F       0.00547322      -0.02498103      -0.07396005
Cu      11.26364002       3.75454997      10.00000011  F      -0.01343171      -0.00115491      -0.05654751
Cu       1.25151999       6.25757994      10.00000011  F       0.00624761      -0.00910848      -0.06677101
Cu       3.75454997       6.25757994      10.00000011  F       0.01227910       0.00460893      -0.04993940
Cu       6.25757994       6.25757994      10.00000011  F      -0.00812797       0.02456052      -0.09376168
Cu       8.76061004       6.25757994      10.00000011  F       0.00397272       0.02551584      -0.07487301
Cu      11.26364002       6.25757994      10.00000011  F      -0.01281960       0.00245224      -0.05779196
Cu       1.25151999       8.76061004      10.00000011  F       0.00116589       0.01365141      -0.07431503
Cu       3.75454997       8.76061004      10.00000011  F      -0.00335205      -0.00572762      -0.06618016
Cu       6.25757994       8.76061004      10.00000011  F       0.00730078      -0.02275514      -0.04667971
Cu       8.76061004       8.76061004      10.00000011  F       0.00337337      -0.01530083      -0.06339316
Cu      11.26364002       8.76061004      10.00000011  F      -0.00818541       0.00774873      -0.07198142
Cu       1.25151999      11.26364002      10.00000011  F      -0.00237327       0.00210634      -0.02046766
Cu       3.75454997      11.26364002      10.00000011  F      -0.00910490       0.00182890      -0.07161264
Cu       6.25757994      11.26364002      10.00000011  F       0.00000035       0.00252618      -0.08015261
Cu       8.76061004      11.26364002      10.00000011  F      -0.00251138       0.00211825      -0.07211233
Cu      11.26364002      11.26364002      10.00000011  F       0.00902127       0.00190801      -0.06897309
Cu       0.00000000       0.00000000      11.76991004  F      -0.02625458       0.03530939       0.15290135
Cu       2.50302998       0.00000000      11.76991004  F       0.02814888       0.03063242       0.10781933
Cu       5.00605995       0.00000000      11.76991004  F       0.07273213       0.09571318       0.11900930
Cu       7.50909005       0.00000000      11.76991004  F       0.02811007       0.06875491       0.13906860
Cu      10.01212003       0.00000000      11.76991004  F      -0.02003057       0.07753810       0.14615030
Cu       0.00000000       2.50302998      11.76991004  F      -0.07966025       0.05624948       0.14668141
Cu       2.50302998       2.50302998      11.76991004  F       0.02269256       0.05982817       0.13875570
Cu       5.00605995       2.50302998      11.76991004  F      -0.05160251      -0.00010988       0.14232632
Cu       7.50909005       2.50302998      11.76991004  F      -0.03258646      -0.03484088       0.11895641
Cu      10.01212003       2.50302998      11.76991004  F       0.02038506      -0.09526896       0.04642222
Cu       0.00000000       5.00605995      11.76991004  F      -0.13035601       0.00191324       0.08938071
Cu       2.50302998       5.00605995      11.76991004  F       0.00088837       0.00256679       0.12045859
Cu       5.00605995       5.00605995      11.76991004  F      -0.07916953       0.00178345       0.25242541
Cu       7.50909005       5.00605995      11.76991004  F      -0.10606416       0.00156535       0.14893476
Cu      10.01212003       5.00605995      11.76991004  F      -0.01704406       0.00177560       0.04658819
Cu       0.00000000       7.50909005      11.76991004  F      -0.08243761      -0.05828379       0.14719737
Cu       2.50302998       7.50909005      11.76991004  F       0.02207625      -0.06012092       0.13939995
Cu       5.00605995       7.50909005      11.76991004  F      -0.05199187      -0.00362405       0.14313141
Cu       7.50909005       7.50909005      11.76991004  F      -0.03471052       0.03029532       0.12038604
Cu      10.01212003       7.50909005      11.76991004  F       0.02045610       0.09175494       0.04836681
Cu       0.00000000      10.01212003      11.76991004  F      -0.02662997      -0.03213993       0.15024735
Cu       2.50302998      10.01212003      11.76991004  F       0.02905728      -0.02861451       0.10746821
Cu       5.00605995      10.01212003      11.76991004  F       0.07185693      -0.09469041       0.11692966
Cu       7.50909005      10.01212003      11.76991004  F       0.02929364      -0.06913079       0.13781408
Cu      10.01212003      10.01212003      11.76991004  F      -0.02325398      -0.07687257       0.14495491
Cu       1.25672742       1.24797195      13.58454479  T      -0.00374584      -0.01620571      -0.00304596
Cu       3.78101576       1.26286661      13.60079389  T      -0.00778609      -0.00794836      -0.01388728
Cu       6.28913615       1.28335116      13.62045119  T       0.00357506      -0.01175790      -0.01559631
Cu       8.76874502       1.28272002      13.62724660  T       0.00210310      -0.01395571      -0.01102147
Cu      11.25644218       1.26586136      13.62127933  T       0.00933300      -0.01243729      -0.02109285
Cu       1.21938934       3.77210660      13.59537558  T       0.00434677      -0.00038821      -0.00284596
Cu       3.73344391       3.77703682      13.62620182  T      -0.01339811       0.00058739      -0.00413568
Cu       6.23126546       3.78148045      13.59988071  T      -0.00059596       0.01051857      -0.02089279
Cu       8.71763363       3.76346626      13.55803588  T       0.00022064       0.00158802      -0.04501980
Cu      11.18842132       3.75441430      13.60587001  T       0.01231664      -0.00549383      -0.01351367
Cu       1.21860702       6.24139359      13.59480029  T       0.00480245      -0.00068230      -0.00268058
Cu       3.73268825       6.23587629      13.62667258  T      -0.01330755      -0.00830452      -0.00374204
Cu       6.23025411       6.22942147      13.60014343  T      -0.00056173      -0.01047250      -0.02033113
Cu       8.71681990       6.24824164      13.55813712  T       0.00038291      -0.00457427      -0.04502434
Cu      11.18762723       6.25755516      13.60647238  T       0.01296778       0.00562574      -0.01569772
Cu       1.25613108       8.76526956      13.58451593  T      -0.00372284       0.01274785      -0.00338558
Cu       3.78080175       8.74988080      13.60093486  T      -0.00693422       0.00770040      -0.01326369
Cu       6.28876783       8.72771259      13.62056230  T       0.00370886       0.01470416      -0.01568722
Cu       8.76809285       8.72868564      13.62774596  T       0.00130022       0.01829139      -0.01166981
Cu      11.25552895       8.74645303      13.62124086  T       0.00913475       0.01459042      -0.01875844
Cu       1.25355571      11.26420908      13.60850525  T      -0.01253102       0.00144868      -0.01000013
Cu       3.74951187      11.26393287      13.57930795  T      -0.01465286       0.00130638      -0.00835281
Cu       6.26502496      11.26314429      13.57613411  T      -0.00178423       0.00201299      -0.01667895
Cu       8.77288366      11.26330299      13.58545973  T      -0.00739524       0.00153137      -0.01195521
Cu      11.27646292      11.26372525      13.59329993  T       0.01598094       0.00065494      -0.00439371
Cu       0.00908488       0.00835662      15.40195095  T      -0.01006632       0.00786192      -0.08289704
Cu       2.51699176       0.00280027      15.39151423  T       0.00501401       0.00881783      -0.08098394
Cu       5.01304453      12.48159049      15.36558871  T       0.00619970       0.00055475      -0.04734878
Cu       7.51848030      12.49921834      15.36805262  T       0.00236006      -0.00579464      -0.05432436
Cu      10.02455921      12.50176154      15.38579423  T      -0.01370695      -0.00408572      -0.05228929
Cu       0.03704536       2.51576677      15.37305711  T       0.02138994       0.01199573      -0.04104852
Cu       2.50324161       2.49016615      15.35127049  T       0.00703568       0.01423658      -0.03951555
Cu       4.96754920       2.42121904      15.44592484  T      -0.03457786      -0.03703298      -0.07020901
Cu       7.55810878       2.53405742      15.46856844  T       0.03252819      -0.09098397      -0.12856841
Cu      10.08470541       2.48049519      15.49548989  T       0.04638898      -0.04787396      -0.07315315
Cu      12.26479699       5.00564708      15.37627043  T       0.03166242       0.00119821      -0.04998570
Cu       2.13170412       5.00779743      15.54137896  T       0.00455184       0.00062317      -0.07965105
Pd       4.65081857       5.00577148      15.78505016  T      -0.01522458      -0.00005158      -0.03758119
Y        7.39420820       5.00459430      17.35570772  T       0.00852267      -0.00205310       0.05120770
Cu       9.80009830       5.00613967      15.47452458  T       0.09793514       0.00066596      -0.12833735
Cu       0.03508310       7.49627954      15.37238488  T       0.02242625      -0.01313488      -0.04107619
Cu       2.50192952       7.52545061      15.35088553  T       0.00615038      -0.01274722      -0.03995955
Cu       4.96747260       7.59038736      15.44636927  T      -0.03768254       0.03606027      -0.07086452
Cu       7.55508412       7.47514295      15.46942872  T       0.03249240       0.09360549      -0.12919245
Cu      10.08230989       7.53190092      15.49562378  T       0.04780526       0.05123490      -0.07407774
Cu       0.00895084      10.00407441      15.40190590  T      -0.00967717      -0.00683664      -0.08312658
Cu       2.51689839      10.01225982      15.39162028  T       0.00535986      -0.00775591      -0.08300279
Cu       5.01300599      10.04512887      15.36578689  T       0.00870154      -0.00353190      -0.04814281
Cu       7.51830921      10.02591585      15.36832672  T       0.00307128       0.00063646      -0.05484450
Cu      10.02452655      10.02592286      15.38588889  T      -0.01312448       0.00224141      -0.05328085
O        6.16270932       3.42492760      16.53101548  T      -0.09938920       0.03310925       0.07811922
O        6.15899332       6.58660796      16.53639050  T      -0.10233964      -0.03292022       0.08182301
O        8.93182798       6.44788937      16.59040577  T       0.10195446       0.07298953       0.10101055
O        8.93442676       3.56375845      16.59085755  T       0.10022466      -0.07419008       0.10136171
C        3.74866334       5.00774261      17.57477558  T       0.15174409      -0.00535923       0.29576093
O        2.48292726       5.02544530      17.54244113  T       0.23318765      -0.00658474       0.07285698
H        3.83904315       4.96916753      19.72275415  T       0.15116857       0.00678625      -0.15306391
C        4.49720644       4.99032715      18.82613469  T      -0.15308083       0.00192478      -0.11175189
O        5.76340646       4.98977849      18.98405298  T      -0.21496275       0.00318483      -0.04961086
109
Lattice="12.51515363 0.0 0.0 0.0 12.51515363 0.0 0.0 0.0 25.30973" Properties=species:S:1:pos:R:3:move_mask:L:1:forces:R:3 energy=-453.48523102999997 stress="0.00818012306499386 5.034813200539745e-06 -0.0005278311011539633 5.034813200539745e-06 0.008974045291474024 -2.474115492972746e-06 -0.0005278311011539633 -2.474115492972746e-06 0.0031059560321852874" free_energy=-453.49197498 pbc="T T T"
Cu       1.25151999       1.25151999      10.00000011  F       0.00077501      -0.01721163      -0.07538669
Cu       3.75454997       1.25151999      10.00000011  F      -0.00253759       0.00329675      -0.06685839
Cu       6.25757994       1.25151999      10.00000011  F       0.00728005       0.01816606      -0.04862083
Cu       8.76061004       1.25151999      10.00000011  F       0.00259964       0.01263914      -0.06517074
Cu      11.26364002       1.25151999      10.00000011  F      -0.00812579      -0.01080192      -0.07322496
Cu       1.25151999       3.75454997      10.00000011  F       0.00642568       0.01076969      -0.06532249
Cu       3.75454997       3.75454997      10.00000011  F       0.01126701      -0.00386698      -0.04971769
Cu       6.25757994       3.75454997      10.00000011  F      -0.00850149      -0.02239307      -0.09139533
Cu       8.76061004       3.75454997      10.00000011  F       0.00591388      -0.02475255      -0.07397553
Cu      11.26364002       3.75454997      10.00000011  F      -0.01370679      -0.00102161      -0.05660732
Cu       1.25151999       6.25757994      10.00000011  F       0.00613289      -0.00896297      -0.06704851
Cu       3.75454997       6.25757994      10.00000011  F       0.01229384       0.00469597      -0.05014134
Cu       6.25757994       6.25757994      10.00000011  F      -0.00824225       0.02461424      -0.09400436
Cu       8.76061004       6.25757994      10.00000011  F       0.00436691       0.02541677      -0.07489468
Cu      11.26364002       6.25757994      10.00000011  F      -0.01303663       0.00246925      -0.05787470
Cu       1.25151999       8.76061004      10.00000011  F       0.00117971       0.01352459      -0.07411149
Cu       3.75454997       8.76061004      10.00000011  F      -0.00318612      -0.00568401      -0.06586377
Cu       6.25757994       8.76061004      10.00000011  F       0.00705590      -0.02264749      -0.04652436
Cu       8.76061004       8.76061004      10.00000011  F       0.00353142      -0.01541463      -0.06343318
Cu      11.26364002       8.76061004      10.00000011  F      -0.00825155       0.00757661      -0.07212608
Cu       1.25151999      11.26364002      10.00000011  F      -0.00241626       0.00190985      -0.02038038
Cu       3.75454997      11.26364002      10.00000011  F      -0.00899498       0.00168370      -0.07134639
Cu       6.25757994      11.26364002      10.00000011  F      -0.00005495       0.00234585      -0.07972256
Cu       8.76061004      11.26364002      10.00000011  F      -0.00231912       0.00204873      -0.07207077
Cu      11.26364002      11.26364002      10.00000011  F       0.00894621       0.00181316      -0.06918685
Cu       0.00000000       0.00000000      11.76991004  F      -0.02615515       0.03507905       0.15015057
Cu       2.50302998       0.00000000      11.76991004  F       0.02813546       0.03046368       0.10580684
Cu       5.00605995       0.00000000      11.76991004  F       0.07231316       0.09559905       0.11739814
Cu       7.50909005       0.00000000      11.76991004  F       0.02795002       0.06856786       0.13670767
Cu      10.01212003       0.00000000      11.76991004  F      -0.01981861       0.07696052       0.14490226
Cu       0.00000000       2.50302998      11.76991004  F      -0.07873068       0.05629339       0.14569196
Cu       2.50302998       2.50302998      11.76991004  F       0.02239987       0.05954825       0.13806980
Cu       5.00605995       2.50302998      11.76991004  F      -0.05182361      -0.00036303       0.14151017
Cu       7.50909005       2.50302998      11.76991004  F      -0.03334897      -0.03575891       0.11679402
Cu      10.01212003       2.50302998      11.76991004  F       0.02076043      -0.09592484       0.04443383
Cu       0.00000000       5.00605995      11.76991004  F      -0.12975338       0.00188983       0.08825177
Cu       2.50302998       5.00605995      11.76991004  F       0.00049292       0.00241676       0.11863190
Cu       5.00605995       5.00605995      11.76991004  F      -0.08034285       0.00166235       0.25042040
Cu       7.50909005       5.00605995      11.76991004  F      -0.10769817       0.00154186       0.14465640
Cu      10.01212003       5.00605995      11.76991004  F      -0.01528971       0.00174441       0.04359640
Cu       0.00000000       7.50909005      11.76991004  F      -0.08166137      -0.05828720       0.14626394
Cu       2.50302998       7.50909005      11.76991004  F       0.02187632      -0.05997355       0.13878357
Cu       5.00605995       7.50909005      11.76991004  F      -0.05222970      -0.00345988       0.14247706
Cu       7.50909005       7.50909005      11.76991004  F      -0.03530581       0.03122823       0.11840428
Cu      10.01212003       7.50909005      11.76991004  F       0.02076932       0.09253435       0.04656286
Cu       0.00000000      10.01212003      11.76991004  F      -0.02657630      -0.03192052       0.14766218
Cu       2.50302998      10.01212003      11.76991004  F       0.02900249      -0.02833615       0.10563618
Cu       5.00605995      10.01212003      11.76991004  F       0.07143560      -0.09435732       0.11537509