109
Lattice="12.51515363 0.0 0.0 0.0 12.51515363 0.0 0.0 0.0 25.30973" Properties=species:S:1:pos:R:3:move_mask:L:1:forces:R:3 energy=-451.69911529 stress="0.008627306141253113 -4.557325269391424e-06 -0.0001739721241599583 -4.557325269391424e-06 0.008735434731915919 1.667566462595083e-05 -0.0001739721241599583 1.667566462595083e-05 0.003092434614060248" free_energy=-451.7029673 pbc="T T T"
Cu       1.25151999       1.25151999      10.00000011  F      -0.00353680      -0.01804539      -0.07011005
Cu       3.75454997       1.25151999      10.00000011  F       0.00474540       0.00399075      -0.07192185
Cu       6.25757994       1.25151999      10.00000011  F      -0.01042882       0.02146584      -0.05768965
Cu       8.76061004       1.25151999      10.00000011  F       0.01289915       0.00697664      -0.04940649
Cu      11.26364002       1.25151999      10.00000011  F      -0.00581867      -0.00640342      -0.07454270
Cu       1.25151999       3.75454997      10.00000011  F      -0.00221726       0.00887743      -0.07168986
Cu       3.75454997       3.75454997      10.00000011  F       0.01203897      -0.01624148      -0.05223521
Cu       6.25757994       3.75454997      10.00000011  F      -0.01190611      -0.02157230      -0.07668582
Cu       8.76061004       3.75454997      10.00000011  F       0.01436535      -0.01508275      -0.08284930
Cu      11.26364002       3.75454997      10.00000011  F      -0.00880875       0.00406092      -0.05962389
Cu       1.25151999       6.25757994      10.00000011  F      -0.00260743      -0.00741317      -0.07333042
Cu       3.75454997       6.25757994      10.00000011  F       0.01330348       0.01695992      -0.05269303
Cu       6.25757994       6.25757994      10.00000011  F      -0.01187064       0.02358771      -0.07985907
Cu       8.76061004       6.25757994      10.00000011  F       0.01304515       0.01581345      -0.08355341
Cu      11.26364002       6.25757994      10.00000011  F      -0.00837318      -0.00257564      -0.06130928
Cu       1.25151999       8.76061004      10.00000011  F      -0.00325029       0.01473209      -0.06914904
Cu       3.75454997       8.76061004      10.00000011  F       0.00398047      -0.00624123      -0.07096075
Cu       6.25757994       8.76061004      10.00000011  F      -0.01032000      -0.02542047      -0.05575586
Cu       8.76061004       8.76061004      10.00000011  F       0.01354628      -0.00930167      -0.04869550
Cu      11.26364002       8.76061004      10.00000011  F      -0.00609774       0.00309659      -0.07344270
Cu       1.25151999      11.26364002      10.00000011  F       0.00080041       0.00187092      -0.02105802
Cu       3.75454997      11.26364002      10.00000011  F      -0.00975378       0.00153668      -0.07557064
Cu       6.25757994      11.26364002      10.00000011  F      -0.00780962       0.00194093      -0.06232403
Cu       8.76061004      11.26364002      10.00000011  F       0.00707616       0.00156817      -0.07001928
Cu      11.26364002      11.26364002      10.00000011  F       0.00761513       0.00188136      -0.07236062
Cu       0.00000000       0.00000000      11.76991004  F      -0.02036353       0.04200418       0.14997179
Cu       2.50302998       0.00000000      11.76991004  F       0.03478328       0.02983664       0.11519658
Cu       5.00605995       0.00000000      11.76991004  F       0.05236537       0.08786536       0.11738154
Cu       7.50909005       0.00000000      11.76991004  F       0.02949000       0.06979591       0.12086258
Cu      10.01212003       0.00000000      11.76991004  F      -0.01482257       0.07681364       0.13822564
Cu       0.00000000       2.50302998      11.76991004  F      -0.09279363       0.02000839       0.12364514
Cu       2.50302998       2.50302998      11.76991004  F       0.06052518       0.01760572       0.10617382
Cu       5.00605995       2.50302998      11.76991004  F       0.00301863      -0.01915160       0.12197907
Cu       7.50909005       2.50302998      11.76991004  F      -0.04010282       0.01233750       0.14962815
Cu      10.01212003       2.50302998      11.76991004  F       0.06432314      -0.06312040       0.07808320
Cu       0.00000000       5.00605995      11.76991004  F      -0.11730004       0.00157242       0.09568711
Cu       2.50302998       5.00605995      11.76991004  F       0.04957843       0.00104548       0.09990644
Cu       5.00605995       5.00605995      11.76991004  F      -0.03691311       0.00287935       0.17334400
Cu       7.50909005       5.00605995      11.76991004  F      -0.06522906       0.00298895       0.16068668
Cu      10.01212003       5.00605995      11.76991004  F       0.03476563       0.00138123       0.08788448
Cu       0.00000000       7.50909005      11.76991004  F      -0.09140662      -0.02422328       0.12490534
Cu       2.50302998       7.50909005      11.76991004  F       0.06034566      -0.01900353       0.10545318
Cu       5.00605995       7.50909005      11.76991004  F       0.00483855       0.01742447       0.12249196
Cu       7.50909005       7.50909005      11.76991004  F      -0.03944891      -0.01411729       0.15018070
Cu      10.01212003       7.50909005      11.76991004  F       0.06590355       0.06125824       0.07821748
Cu       0.00000000      10.01212003      11.76991004  F      -0.01978155      -0.03983583       0.14651404
Cu       2.50302998      10.01212003      11.76991004  F       0.03634735      -0.02783664       0.11394593
Cu       5.00605995      10.01212003      11.76991004  F       0.05254837      -0.08322760       0.11524364
Cu       7.50909005      10.01212003      11.76991004  F       0.03051695      -0.06498634       0.11828457
Cu      10.01212003      10.01212003      11.76991004  F      -0.01501681      -0.07476011       0.13705080
Cu       1.26501809       1.24277153      13.59027820  T      -0.00456053      -0.01679729      -0.00765273
Cu       3.78393655       1.25907051      13.60796236  T      -0.01480018      -0.01123171      -0.02022955
Cu       6.29218021       1.28229075      13.61802602  T      -0.00132155      -0.00218527      -0.00469383
Cu       8.77383143       1.28041060      13.62215985  T      -0.00423584      -0.00631826      -0.00611422
Cu      11.26514184       1.26672403      13.61828392  T       0.01429241      -0.01721465      -0.01785450
Cu       1.23102530       3.75049005      13.57516677  T       0.00047538       0.00228410      -0.01223229
Cu       3.75621749       3.75452206      13.60492848  T      -0.02593015      -0.00098541      -0.00884274
Cu       6.25585273       3.77930732      13.60236461  T      -0.00426277       0.01251470      -0.03203820
Cu       8.74041234       3.76680105      13.56615879  T      -0.00315149       0.00024096      -0.04195687
Cu      11.21692295       3.76176858      13.61870280  T       0.00632901      -0.00038614      -0.00047917
Cu       1.23157171       6.26146715      13.57506503  T      -0.00021613      -0.00056868      -0.01174238
Cu       3.75668117       6.25820733      13.60454327  T      -0.02587201       0.00130752      -0.00951740
Cu       6.25660964       6.23445144      13.60221098  T      -0.00442769      -0.01463827      -0.03083893
Cu       8.74097477       6.24592984      13.56617119  T      -0.00171922      -0.00329483      -0.04121535
Cu      11.21758776       6.25014857      13.61847223  T       0.00454175      -0.00048098      -0.00090028
Cu       1.26560567       8.76931258      13.59018303  T      -0.00481112       0.01419595      -0.00750491
Cu       3.78439949       8.75395912      13.60762017  T      -0.01476043       0.01031147      -0.01831699
Cu       6.29294777       8.73194809      13.61749223  T      -0.00225167       0.00354020      -0.00365594
Cu       8.77457908       8.73272378      13.62177312  T      -0.00460987       0.01089710      -0.00541769
Cu      11.26594030       8.74529800      13.61810751  T       0.01287542       0.01913418      -0.01639110
Cu       1.24977125      11.26359521      13.61161380  T      -0.01227500       0.00193558      -0.00858837
Cu       3.74336805      11.26410233      13.58333194  T      -0.01721689       0.00135311      -0.00030868
Cu       6.25883221      11.26465537      13.57413363  T      -0.00425453       0.00187108      -0.00800765
Cu       8.76719940      11.26413512      13.58394267  T      -0.00659690       0.00130886      -0.01042641
Cu      11.27179252      11.26357619      13.59141688  T       0.02435131       0.00148464      -0.00712754
Cu      12.51469032       0.00474387      15.40398611  T       0.00192414       0.00729037      -0.08798067
Cu       2.51012732       0.00589476      15.39768905  T       0.00429578       0.00803525      -0.07717485
Cu       5.00801469      12.48272174      15.37031809  T       0.01090025      -0.00201921      -0.04706576
Cu       7.51211233      12.49855190      15.36450166  T      -0.00326627      -0.00105646      -0.05560250
Cu      10.01700294      12.49892623      15.38363759  T      -0.01211487       0.00278406      -0.05754404
Cu       0.06005371       2.50424908      15.37947085  T       0.00933419       0.00965555      -0.04139242
Cu       2.52664632       2.50768774      15.37234236  T      -0.00412203       0.00369340      -0.04548269
Cu       4.99670437       2.41737326      15.45331452  T      -0.04693201      -0.06227902      -0.08148629
Cu       7.58771050       2.51653345      15.47789305  T       0.04586189      -0.09624556      -0.13489408
Cu      10.10724808       2.46585058      15.48436981  T       0.04166590      -0.05348384      -0.07793594
Cu      12.43903597       5.00599500      15.36556847  T      -0.00025199       0.00354393      -0.05808596
Cu       2.34652385       5.00610200      15.37551696  T      -0.02923257       0.00113295      -0.04538414
Pd       4.84011777       5.00709983      15.59526034  T       0.01169127      -0.00150190      -0.06672407
Y        7.42375422       5.00862180      17.30703761  T      -0.12432565       0.00057364       0.13415854
Cu       9.92476513       5.00603179      15.48927053  T       0.11341942       0.00171491      -0.16574650
Cu       0.06181860       7.50764780      15.37943946  T       0.00777775      -0.01449565      -0.04014701
Cu       2.52809733       7.50445369      15.37204194  T      -0.00470061      -0.01133126      -0.04505425
Cu       4.99789581       7.59740423      15.45197487  T      -0.04549836       0.06149848      -0.07885227
Cu       7.58960904       7.49890685      15.47735598  T       0.04505896       0.09192305      -0.13268805
Cu      10.10940144       7.54647156      15.48388690  T       0.04010738       0.05539804      -0.07716745
Cu      12.51476491      10.00707679      15.40401066  T       0.00203159      -0.00593044      -0.08781368
Cu       2.51030578      10.00621312      15.39763994  T       0.00421984      -0.00662591      -0.07778774
Cu       5.00811782      10.04704394      15.37001691  T       0.01350891      -0.00216435      -0.04635121
Cu       7.51231433      10.03155268      15.36433690  T      -0.00280496      -0.00681174      -0.05570138
Cu      10.01709993      10.02824693      15.38347662  T      -0.01243140      -0.00432806      -0.05785237
O        6.19579851       3.39218659      16.55916825  T      -0.10411992       0.01412894       0.07657201
O        6.19727430       6.62474890      16.55863345  T      -0.09870640      -0.01084147       0.07105530
O        8.99310393       6.43246270      16.56120290  T       0.05440291       0.10173542       0.11645062
O        8.99135368       3.58069959      16.56188727  T       0.05532667      -0.10016035       0.11784005
C        5.12405782       5.02175233      18.63752481  T      -0.03116559       0.01211497       0.31475192
O        4.13249985       5.02268070      17.89782518  T      -0.00208878      -0.00263700       0.15062531
H        3.58681775       4.98402327      20.33564496  T       0.33127926       0.01996799      -0.00979682
C        4.70627859       5.06532020      20.16360941  T      -0.35050824      -0.04731309      -0.37559579
O        5.50779872       5.18654499      21.06257811  T       0.14708391       0.01113961       0.06380053
109
Lattice="12.51515363 0.0 0.0 0.0 12.51515363 0.0 0.0 0.0 25.30973" Properties=species:S:1:pos:R:3:move_mask:L:1:forces:R:3 energy=-451.70295502 stress="0.008620604214723541 1.497481594009289e-06 -0.00012055906164924111 1.497481594009289e-06 0.008698857759540215 2.5820929766996138e-05 -0.00012055906164924111 2.5820929766996138e-05 0.003082507699765332" free_energy=-451.70679547 pbc="T T T"
Cu       1.25151999       1.25151999      10.00000011  F      -0.00381268      -0.01806206      -0.07017929
Cu       3.75454997       1.25151999      10.00000011  F       0.00433073       0.00373755      -0.07195707
Cu       6.25757994       1.25151999      10.00000011  F      -0.01052531       0.02106314      -0.05793235
Cu       8.76061004       1.25151999      10.00000011  F       0.01314250       0.00651742      -0.04969701
Cu      11.26364002       1.25151999      10.00000011  F      -0.00574326      -0.00671677      -0.07558272
Cu       1.25151999       3.75454997      10.00000011  F      -0.00234361       0.00872755      -0.07163061
Cu       3.75454997       3.75454997      10.00000011  F       0.01155824      -0.01631283      -0.05231353
Cu       6.25757994       3.75454997      10.00000011  F      -0.01214576      -0.02176323      -0.07716761
Cu       8.76061004       3.75454997      10.00000011  F       0.01454031      -0.01532169      -0.08343317
Cu      11.26364002       3.75454997      10.00000011  F      -0.00863458       0.00374807      -0.05982052
Cu       1.25151999       6.25757994      10.00000011  F      -0.00274861      -0.00716283      -0.07324290
Cu       3.75454997       6.25757994      10.00000011  F       0.01281548       0.01712502      -0.05274373
Cu       6.25757994       6.25757994      10.00000011  F      -0.01210508       0.02387753      -0.08028579
Cu       8.76061004       6.25757994      10.00000011  F       0.01322961       0.01617022      -0.08406853
Cu      11.26364002       6.25757994      10.00000011  F      -0.00819591      -0.00216395      -0.06146077
Cu       1.25151999       8.76061004      10.00000011  F      -0.00352652       0.01473075      -0.06910510
Cu       3.75454997       8.76061004      10.00000011  F       0.00357133      -0.00600574      -0.07094184
Cu       6.25757994       8.76061004      10.00000011  F      -0.01039805      -0.02504087      -0.05592761
Cu       8.76061004       8.76061004      10.00000011  F       0.01378295      -0.00887451      -0.04889541
Cu      11.26364002       8.76061004      10.00000011  F      -0.00603930       0.00338041      -0.07428827
Cu       1.25151999      11.26364002      10.00000011  F       0.00049738       0.00181746      -0.02000805
Cu       3.75454997      11.26364002      10.00000011  F      -0.00994721       0.00148772      -0.07545588
Cu       6.25757994      11.26364002      10.00000011  F      -0.00779502       0.00189458      -0.06261442
Cu       8.76061004      11.26364002      10.00000011  F       0.00718749       0.00150723      -0.07075207
Cu      11.26364002      11.26364002      10.00000011  F       0.00737434       0.00183769      -0.07254816
Cu       0.00000000       0.00000000      11.76991004  F      -0.02028674       0.04184615       0.14825061
Cu       2.50302998       0.00000000      11.76991004  F       0.03437632       0.02957763       0.11399931
Cu       5.00605995       0.00000000      11.76991004  F       0.05197116       0.08755653       0.11655138
Cu       7.50909005       0.00000000      11.76991004  F       0.02950346       0.06944019       0.11960248
Cu      10.01212003       0.00000000      11.76991004  F      -0.01475892       0.07652804       0.13717200
Cu       0.00000000       2.50302998      11.76991004  F      -0.09253141       0.01987617       0.12263854
Cu       2.50302998       2.50302998      11.76991004  F       0.05979825       0.01729142       0.10515632
Cu       5.00605995       2.50302998      11.76991004  F       0.00227741      -0.01956576       0.12129539
Cu       7.50909005       2.50302998      11.76991004  F      -0.04049415       0.01151119       0.14807972
Cu      10.01212003       2.50302998      11.76991004  F       0.06505243      -0.06391669       0.07674650
Cu       0.00000000       5.00605995      11.76991004  F      -0.11715082       0.00162963       0.09459373
Cu       2.50302998       5.00605995      11.76991004  F       0.04909174       0.00110163       0.09884403
Cu       5.00605995       5.00605995      11.76991004  F      -0.03831482       0.00292245       0.17206375
Cu       7.50909005       5.00605995      11.76991004  F      -0.06563186       0.00303702       0.15822677
Cu      10.01212003       5.00605995      11.76991004  F       0.03582286       0.00139915       0.08604561
Cu       0.00000000       7.50909005      11.76991004  F      -0.09118562      -0.02402682       0.12394741
Cu       2.50302998       7.50909005      11.76991004  F       0.05961366      -0.01863029       0.10444127
Cu       5.00605995       7.50909005      11.76991004  F       0.00410630       0.01787705       0.12185694
Cu       7.50909005       7.50909005      11.76991004  F      -0.03981544      -0.01326122       0.14875978
Cu      10.01212003       7.50909005      11.76991004  F       0.06661905       0.06212042       0.07696128
Cu       0.00000000      10.01212003      11.76991004  F      -0.01969361      -0.03973862       0.14487428
Cu       2.50302998      10.01212003      11.76991004  F       0.03593114      -0.02765203       0.11285881
Cu       5.00605995      10.01212003      11.76991004  F       0.05213043      -0.08295321       0.11448309
Cu       7.50909005      10.01212003      11.76991004  F       0.03050501      -0.06464043       0.11706192
Cu      10.01212003      10.01212003      11.76991004  F      -0.01492616      -0.07448316       0.13602218
Cu       1.26497416       1.24260945      13.59020430  T      -0.00407018      -0.01468218      -0.00993379
Cu       3.78379375       1.25896213      13.60776722  T      -0.01469375      -0.01109945      -0.02235362
Cu       6.29216745       1.28226973      13.61798071  T      -0.00229339      -0.00249363      -0.00787435
Cu       8.77379063       1.28034965      13.62210088  T      -0.00262942      -0.00724575      -0.01071650
Cu      11.26527975       1.26655795      13.61811182  T       0.01370328      -0.01614170      -0.02067559
Cu       1.23102993       3.75051208      13.57504858  T       0.00028947       0.00149875      -0.01388548
Cu       3.75596731       3.75451255      13.60484294  T      -0.02468073      -0.00111161      -0.01019781
Cu       6.25581168       3.77942809      13.60205558  T      -0.00510699       0.01050555      -0.02965098
Cu       8.74038193       3.76680343      13.56575383  T      -0.00262226      -0.00006025      -0.03933288
Cu      11.21698403       3.76176483      13.61869824  T       0.00689875      -0.00180872      -0.00443671
Cu       1.23156971       6.26146164      13.57495189  T      -0.00040061       0.00011843      -0.01357492
Cu       3.75643162       6.25821997      13.60445140  T      -0.02460667       0.00146033      -0.01086945
Cu       6.25656684       6.23431014      13.60191359  T      -0.00519807      -0.01241850      -0.02854076
Cu       8.74095825       6.24589805      13.56577332  T      -0.00132868      -0.00261944      -0.03879896
Cu      11.21763169       6.25014394      13.61846337  T       0.00521741       0.00118744      -0.00490641
Cu       1.26555937       8.76944950      13.59011065  T      -0.00434625       0.01232992      -0.00965268
Cu       3.78425706       8.75405861      13.60744326  T      -0.01472614       0.01019741      -0.02053830
Cu       6.29292612       8.73198226      13.61745680  T      -0.00317184       0.00365114      -0.00704599
Cu       8.77453453       8.73282891      13.62172098  T      -0.00299346       0.01130166      -0.01018072
Cu      11.26606445       8.74548260      13.61794933  T       0.01249197       0.01785538      -0.01929218
Cu       1.24965286      11.26361399      13.61153078  T      -0.01072022       0.00163726      -0.01132143
Cu       3.74320198      11.26411534      13.58332916  T      -0.01595457       0.00114086      -0.00269501
Cu       6.25879116      11.26467340      13.57405643  T      -0.00479323       0.00167977      -0.01026407
Cu       8.76713582      11.26414763      13.58384219  T      -0.00564505       0.00123043      -0.01273651
Cu      11.27202742      11.26359046      13.59134804  T       0.02147294       0.00133297      -0.00961939
Cu      12.51470884       0.00481420      15.40313722  T       0.00189257       0.00698312      -0.08336589
Cu       2.51016874       0.00597223      15.39694443  T       0.00405426       0.00748473      -0.07380598
Cu       5.00811982      12.48270221      15.36986403  T       0.00972042      -0.00352448      -0.04546060
Cu       7.51208080      12.49854164      15.36396510  T      -0.00360697      -0.00335334      -0.05306226
Cu      10.01688605      12.49895301      15.38308229  T      -0.01119639       0.00067114      -0.05557085
Cu       0.06014382       2.50434219      15.37907146  T       0.01019811       0.00908887      -0.04018724
Cu       2.52660665       2.50772341      15.37190349  T      -0.00549610       0.00361989      -0.04414037
Cu       4.99625157       2.41677228      15.45252840  T      -0.03715951      -0.05092234      -0.07097738
Cu       7.58815303       2.51560483      15.47659137  T       0.03602380      -0.07824952      -0.11386222
Cu      10.10765020       2.46533446      15.48361786  T       0.03305372      -0.04333919      -0.06688381
Cu      12.43903359       5.00602929      15.36500811  T       0.00244141       0.00327962      -0.05571852
Cu       2.34624188       5.00611289      15.37507885  T      -0.02529387       0.00097487      -0.04254157
Pd       4.84023054       5.00708532      15.59461671  T       0.01257151      -0.00134558      -0.04810168
Y        7.42255477       5.00862743      17.30833221  T      -0.10270340       0.00063259       0.12754833
Cu       9.92585945       5.00604844      15.48767146  T       0.09218560       0.00116545      -0.14163601
Cu       0.06189357       7.50750788      15.37905223  T       0.00862332      -0.01345779      -0.03916641
Cu       2.52805202       7.50434443      15.37160737  T      -0.00601837      -0.01067930      -0.04373732
Cu       4.99745691       7.59799758      15.45121406  T      -0.03589079       0.05031256      -0.06859022
Cu       7.59004382       7.49979379      15.47607556  T       0.03557414       0.07394855      -0.11198689
Cu      10.10978841       7.54700596      15.48314254  T       0.03194161       0.04556165      -0.06661523
Cu      12.51478456      10.00701960      15.40316329  T       0.00199815      -0.00577833      -0.08343444
Cu       2.51034658      10.00614917      15.39688951  T       0.00410793      -0.00618912      -0.07447507
Cu       5.00824810      10.04702304      15.36956968  T       0.01219059      -0.00038499      -0.04494860
Cu       7.51228730      10.03148698      15.36379932  T      -0.00324438      -0.00413840      -0.05312067
Cu      10.01697991      10.02820513      15.38291854  T      -0.01144616      -0.00203353      -0.05579801
O        6.19479392       3.39232288      16.55990704  T      -0.10109039       0.00421596       0.05889613
O        6.19632202       6.62464427      16.55931909  T      -0.09557443      -0.00139223       0.05333236
O        8.99362881       6.43344426      16.56232640  T       0.05568119       0.09787699       0.10187646
O        8.99188745       3.57973317      16.56302444  T       0.05644312      -0.09659745       0.10296672
C        5.12375721       5.02186922      18.64056148  T      -0.04818574       0.00872786       0.27542061
O        4.13247970       5.02265529      17.89927846  T      -0.00108156      -0.00205523       0.12526466
H        3.59001412       4.98421588      20.33555030  T       0.20510470       0.01060500       0.00206627
C        4.70289675       5.06486378      20.15998556  T       0.08762907       0.00677017      -0.02111973
O        5.50921781       5.18665249      21.06319365  T      -0.14361858      -0.03096853      -0.24845084
109
Lattice="12.51515363 0.0 0.0 0.0 12.51515363 0.0 0.0 0.0 25.30973" Properties=species:S:1:pos:R:3:move_mask:L:1:forces:R:3 energy=-451.70676529 stress="0.008587839194114398 -3.6348427036041292e-06 -0.00015007557024514535 -3.6348427036041292e-06 0.008697253623038264 2.0163906763206215e-05 -0.00015007557024514535 2.0163906763206215e-05 0.003029677856350356" free_energy=-451.71059077 pbc="T T T"
Cu       1.25151999       1.25151999      10.00000011  F      -0.00368502      -0.01768788      -0.07010759
Cu       3.75454997       1.25151999      10.00000011  F       0.00470436       0.00400352      -0.07180155
Cu       6.25757994       1.25151999      10.00000011  F      -0.01067603       0.02131926      -0.05767934
Cu       8.76061004       1.25151999      10.00000011  F       0.01297073       0.00685505      -0.04946870
Cu      11.26364002       1.25151999      10.00000011  F      -0.00586715      -0.00634958      -0.07551691
Cu       1.25151999       3.75454997      10.00000011  F      -0.00224011       0.00885244      -0.07164577
Cu       3.75454997       3.75454997      10.00000011  F       0.01188698      -0.01613419      -0.05227790
Cu       6.25757994       3.75454997      10.00000011  F      -0.01218951      -0.02151797      -0.07690229
Cu       8.76061004       3.75454997      10.00000011  F       0.01438274      -0.01504510      -0.08305189
Cu      11.26364002       3.75454997      10.00000011  F      -0.00879860       0.00391133      -0.05956658
Cu       1.25151999       6.25757994      10.00000011  F      -0.00265094      -0.00727898      -0.07324731
Cu       3.75454997       6.25757994      10.00000011  F       0.01313780       0.01695419      -0.05271753
Cu       6.25757994       6.25757994      10.00000011  F      -0.01214384       0.02362934      -0.08003107
Cu       8.76061004       6.25757994      10.00000011  F       0.01307663       0.01590690      -0.08368715
Cu      11.26364002       6.25757994      10.00000011  F      -0.00835677      -0.00231633      -0.06118968
Cu       1.25151999       8.76061004      10.00000011  F      -0.00339429       0.01436588      -0.06900340
Cu       3.75454997       8.76061004      10.00000011  F       0.00393836      -0.00625837      -0.07082100
Cu       6.25757994       8.76061004      10.00000011  F      -0.01054730      -0.02528296      -0.05569324
Cu       8.76061004       8.76061004      10.00000011  F       0.01361396      -0.00920460      -0.04867335
Cu      11.26364002       8.76061004      10.00000011  F      -0.00616602       0.00301783      -0.07418481
Cu       1.25151999      11.26364002      10.00000011  F       0.00066879       0.00183209      -0.02002114
Cu       3.75454997      11.26364002      10.00000011  F      -0.00951779       0.00149917      -0.07523994
Cu       6.25757994      11.26364002      10.00000011  F      -0.00797605       0.00191259      -0.06239151
Cu       8.76061004      11.26364002      10.00000011  F       0.00702128       0.00151709      -0.07067914
Cu      11.26364002      11.26364002      10.00000011  F       0.00720622       0.00185097      -0.07247488
Cu       0.00000000       0.00000000      11.76991004  F      -0.02031594       0.04209368       0.14738274
Cu       2.50302998       0.00000000      11.76991004  F       0.03474424       0.02967050       0.11346192
Cu       5.00605995       0.00000000      11.76991004  F       0.05212834       0.08759343       0.11629285
Cu       7.50909005       0.00000000      11.76991004  F       0.02919145       0.06964157       0.11932576
Cu      10.01212003       0.00000000      11.76991004  F      -0.01501781       0.07665403       0.13693407
Cu       0.00000000       2.50302998      11.76991004  F      -0.09266100       0.02021222       0.12234222
Cu       2.50302998       2.50302998      11.76991004  F       0.05993823       0.01743369       0.10474966
Cu       5.00605995       2.50302998      11.76991004  F       0.00240976      -0.01932010       0.12117611
Cu       7.50909005       2.50302998      11.76991004  F      -0.04083027       0.01163238       0.14769937
Cu      10.01212003       2.50302998      11.76991004  F       0.06503362      -0.06366496       0.07656530
Cu       0.00000000       5.00605995      11.76991004  F      -0.11745459       0.00162941       0.09437006
Cu       2.50302998       5.00605995      11.76991004  F       0.04929178       0.00110562       0.09828326
Cu       5.00605995       5.00605995      11.76991004  F      -0.03850813       0.00291766       0.17151714
Cu       7.50909005       5.00605995      11.76991004  F      -0.06591875       0.00303665       0.15718841
Cu      10.01212003       5.00605995      11.76991004  F       0.03594681       0.00137386       0.08551968
Cu       0.00000000       7.50909005      11.76991004  F      -0.09134967      -0.02434919       0.12365679
Cu       2.50302998       7.50909005      11.76991004  F       0.05976496      -0.01875811       0.10401240
Cu       5.00605995       7.50909005      11.76991004  F       0.00425553       0.01764607       0.12175878
Cu       7.50909005       7.50909005      11.76991004  F      -0.04014415      -0.01338193       0.14846965
Cu      10.01212003       7.50909005      11.76991004  F       0.06657036       0.06189085       0.07682200
Cu       0.00000000      10.01212003      11.76991004  F      -0.01971605      -0.03994342       0.14405748
Cu       2.50302998      10.01212003      11.76991004  F       0.03630411      -0.02772068       0.11239228
Cu       5.00605995      10.01212003      11.76991004  F       0.05227906      -0.08295693       0.11426981