109
Lattice="12.51515363 0.0 0.0 0.0 12.51515363 0.0 0.0 0.0 25.30973" Properties=species:S:1:pos:R:3:move_mask:L:1:forces:R:3 energy=-453.06090773 stress="0.00802343926575414 -3.551105368869455e-05 -3.7800938556798595e-05 -3.551105368869455e-05 0.0077260744410432985 -0.00015926562445567802 -3.7800938556798595e-05 -0.00015926562445567802 0.002292508536397188" free_energy=-453.06025746 pbc="T T T"
Cu       1.25151999       1.25151999      10.00000011  F       0.00389169      -0.00179568      -0.06106368
Cu       3.75454997       1.25151999      10.00000011  F      -0.00447047       0.01420472      -0.06447331
Cu       6.25757994       1.25151999      10.00000011  F       0.00942156       0.01187310      -0.06448607
Cu       8.76061004       1.25151999      10.00000011  F      -0.00363432       0.00418002      -0.05181834
Cu      11.26364002       1.25151999      10.00000011  F      -0.00839135      -0.00621005      -0.07378755
Cu       1.25151999       3.75454997      10.00000011  F       0.00042386       0.00459874      -0.05684407
Cu       3.75454997       3.75454997      10.00000011  F       0.00527643      -0.01625468      -0.03915892
Cu       6.25757994       3.75454997      10.00000011  F      -0.01243454      -0.02045205      -0.07340218
Cu       8.76061004       3.75454997      10.00000011  F       0.00821225      -0.01454707      -0.08126308
Cu      11.26364002       3.75454997      10.00000011  F       0.00047104       0.00430890      -0.05038352
Cu       1.25151999       6.25757994      10.00000011  F      -0.00501463      -0.00112244      -0.07114964
Cu       3.75454997       6.25757994      10.00000011  F       0.01455878       0.02296141      -0.05273341
Cu       6.25757994       6.25757994      10.00000011  F      -0.01741693       0.02966265      -0.08087301
Cu       8.76061004       6.25757994      10.00000011  F       0.00854011       0.01449342      -0.07392498
Cu      11.26364002       6.25757994      10.00000011  F       0.00277269       0.00554670      -0.05851898
Cu       1.25151999       8.76061004      10.00000011  F       0.00221210      -0.00596174      -0.05713810
Cu       3.75454997       8.76061004      10.00000011  F       0.00393830      -0.02288429      -0.07097996
Cu       6.25757994       8.76061004      10.00000011  F      -0.00232862      -0.02701102      -0.06549719
Cu       8.76061004       8.76061004      10.00000011  F      -0.00004529      -0.00820816      -0.04509764
Cu      11.26364002       8.76061004      10.00000011  F      -0.00534427      -0.00796087      -0.07689345
Cu       1.25151999      11.26364002      10.00000011  F       0.00574838       0.00481689      -0.02247407
Cu       3.75454997      11.26364002      10.00000011  F      -0.01348858       0.00151272      -0.05719601
Cu       6.25757994      11.26364002      10.00000011  F       0.01374286       0.00506459      -0.06094086
Cu       8.76061004      11.26364002      10.00000011  F      -0.00823275       0.00277263      -0.06967827
Cu      11.26364002      11.26364002      10.00000011  F      -0.00078836       0.00369969      -0.04079919
Cu       0.00000000       0.00000000      11.76991004  F       0.01799244       0.06711171       0.08186356
Cu       2.50302998       0.00000000      11.76991004  F       0.03375739       0.04029548       0.04801969
Cu       5.00605995       0.00000000      11.76991004  F       0.02097292       0.10420460       0.08299576
Cu       7.50909005       0.00000000      11.76991004  F       0.01433031       0.09045321       0.06435903
Cu      10.01212003       0.00000000      11.76991004  F      -0.05924280       0.07023805       0.05232663
Cu       0.00000000       2.50302998      11.76991004  F      -0.08773172       0.00519990       0.04573971
Cu       2.50302998       2.50302998      11.76991004  F       0.10289326       0.00330221       0.02245695
Cu       5.00605995       2.50302998      11.76991004  F      -0.04404381      -0.03076592       0.06482744
Cu       7.50909005       2.50302998      11.76991004  F      -0.01732112      -0.02183017       0.06269850
Cu      10.01212003       2.50302998      11.76991004  F       0.03396291      -0.02805032       0.03753670
Cu       0.00000000       5.00605995      11.76991004  F      -0.10379410      -0.01875188       0.03374808
Cu       2.50302998       5.00605995      11.76991004  F       0.10145812      -0.02062665       0.12023472
Cu       5.00605995       5.00605995      11.76991004  F      -0.06427903      -0.01234175       0.14370599
Cu       7.50909005       5.00605995      11.76991004  F      -0.05011301       0.01156114       0.09722456
Cu      10.01212003       5.00605995      11.76991004  F       0.03798380       0.00560760       0.04890536
Cu       0.00000000       7.50909005      11.76991004  F      -0.10679479      -0.01540968       0.02999759
Cu       2.50302998       7.50909005      11.76991004  F       0.09654924       0.00330407       0.01998370
Cu       5.00605995       7.50909005      11.76991004  F      -0.01313073       0.03053341       0.05114850
Cu       7.50909005       7.50909005      11.76991004  F      -0.01125812       0.02452735       0.08776120
Cu      10.01212003       7.50909005      11.76991004  F       0.03923109       0.02950894       0.05547954
Cu       0.00000000      10.01212003      11.76991004  F       0.00339793      -0.08595779       0.07613350
Cu       2.50302998      10.01212003      11.76991004  F       0.03410826      -0.06364110       0.05757303
Cu       5.00605995      10.01212003      11.76991004  F       0.04308982      -0.09655120       0.07141838
Cu       7.50909005      10.01212003      11.76991004  F       0.01212738      -0.09329890       0.06374184
Cu      10.01212003      10.01212003      11.76991004  F      -0.05230504      -0.09343079       0.06544027
Cu       1.27717381       1.24813890      13.58771660  T       0.00076274       0.00049876       0.00147626
Cu       3.76648317       1.27167527      13.61718801  T      -0.00033581       0.00083535       0.00201042
Cu       6.27773410       1.27903306      13.60395279  T      -0.00071681       0.00025923       0.00061541
Cu       8.75226394       1.28248173      13.60990033  T      -0.00043034       0.00006922      -0.00000286
Cu      11.24857152       1.25379838      13.58347596  T       0.00024895       0.00008795       0.00016331
Cu       1.25008839       3.73718294      13.56210341  T      -0.00117971      -0.00148314      -0.00268627
Cu       3.74976555       3.73817927      13.61698224  T       0.00168916      -0.00094295      -0.00188888
Cu       6.26951039       3.76760040      13.57196712  T       0.00031304      -0.00001666       0.00055440
Cu       8.74333488       3.76842427      13.55936464  T      -0.00027725       0.00022911       0.00032588
Cu      11.23045446       3.76861900      13.60580471  T      -0.00042566      -0.00014545       0.00030808
Cu       1.24468659       6.25914209      13.55362591  T      -0.00002949       0.00209361      -0.00128531
Cu       3.75571626       6.26383727      13.60317452  T       0.00100267       0.00200513       0.00009279
Cu       6.27062374       6.25171384      13.57494784  T       0.00031339      -0.00053512       0.00027178
Cu       8.74489777       6.24531334      13.56233626  T      -0.00039764      -0.00046976       0.00022447
Cu      11.23369063       6.24564036      13.60915192  T      -0.00069141      -0.00058653      -0.00022848
Cu       1.26746280       8.75440753      13.58081059  T       0.00178113      -0.00062866       0.00211662
Cu       3.77824378       8.74158175      13.60749287  T      -0.00128899      -0.00122393       0.00296519
Cu       6.27860052       8.73407654      13.61278715  T      -0.00078310      -0.00077461       0.00003998
Cu       8.75622161       8.73047981      13.61312681  T      -0.00065909      -0.00059259      -0.00006716
Cu      11.25830731       8.74491779      13.59567347  T      -0.00018273      -0.00009528      -0.00052587
Cu       1.24773929      11.25571718      13.58396747  T       0.00059116       0.00018630       0.00058347
Cu       3.74951312      11.26107128      13.56519879  T       0.00003537       0.00007179       0.00071181
Cu       6.25619414      11.26403099      13.56367008  T      -0.00021424      -0.00022828       0.00029454
Cu       8.76157271      11.26345217      13.56809220  T      -0.00023741      -0.00035389       0.00009843
Cu      11.26948247      11.25730034      13.57128021  T       0.00021102      -0.00004909       0.00006700
Cu      12.51178718      12.50775980      15.35435271  T      -0.00001702      -0.00024990       0.00103864
Cu       2.50916177      12.46787088      15.36120785  T       0.00032671       0.00293374       0.00176429
Cu       5.00649598      12.48976476      15.34815740  T       0.00022456      -0.00046089       0.00078440
Cu       7.50481062      12.50228154      15.34362949  T       0.00003861      -0.00038211       0.00008237
Cu      10.01308607      12.49505980      15.34804148  T      -0.00011579      -0.00030068       0.00026841
Cu      12.51355457       2.47693851      15.30605087  T       0.00012539      -0.00013553       0.00136367
Cu       2.50266015       2.41551213      15.47382198  T      -0.00088447       0.00380400       0.00603224
Cu       5.02649820       2.42190963      15.44440726  T      -0.00093277      -0.00034904       0.00145289
Cu       7.54585557       2.51820785      15.47671792  T      -0.00033683      -0.00021122      -0.00001226
Cu      10.07156150       2.45058660      15.43794518  T      -0.00016555      -0.00052777      -0.00008074
Cu      12.49983358       4.99796315      15.34700580  T       0.00218119       0.00029619      -0.00121263
Cu       2.41827998       5.04534702      15.34994933  T       0.00202707      -0.00421980      -0.01226822
Pd       4.97705120       5.01598835      15.49441246  T      -0.00160664      -0.00066413      -0.00150496
Y        7.48369768       5.01407553      17.24093948  T      -0.00010420      -0.00092706      -0.00713861
Cu       9.98769570       5.00747842      15.45522565  T       0.00147894      -0.00024169       0.00086713
Cu       0.04415884       7.50258580      15.34641406  T      -0.00247094       0.00042987      -0.00141247
Cu       2.51255363       7.52738020      15.40979874  T      -0.00101474      -0.00206550       0.01186011
Cu       4.99851156       7.59937124      15.47346157  T       0.00087359      -0.00053991       0.00014730
Cu       7.54234381       7.49994147      15.47770930  T       0.00005102      -0.00047791       0.00031407
Cu      10.09163743       7.55988067      15.44266697  T      -0.00114444       0.00009470      -0.00039285
Cu      12.51372077       9.99957834      15.36212736  T      -0.00007268      -0.00005754       0.00024146
Cu       2.50995686       9.99917360      15.36152296  T       0.00021860       0.00134449       0.00122503
Cu       5.00559651      10.04811661      15.35374781  T       0.00032747      -0.00069631       0.00032110
Cu       7.50679014      10.03168960      15.34599342  T      -0.00007154      -0.00062247      -0.00004981
Cu      10.01379067      10.03178158      15.35091439  T      -0.00018794      -0.00035040       0.00002875
O        6.12166513       3.43057619      16.67159837  T       0.00037337       0.00040003      -0.00035409
O        6.12726553       6.60693445      16.68599733  T       0.00006306      -0.00215314      -0.00046919
O        8.98594013       6.44272537      16.54384548  T      -0.00158800      -0.00181972       0.00113298
O        8.98495944       3.58127954      16.54730710  T      -0.00100381       0.00095378       0.00076585
C        2.29323708       4.42440942      17.14981939  T       0.00164970       0.00832055      -0.00716216
O        2.36597615       3.19130110      17.41461333  T      -0.00070659       0.01222214       0.00279547
H        2.16939112       4.89200685      19.31031514  T      -0.00064544       0.03583364      -0.01068952
C        2.22142638       5.38513682      18.30831103  T       0.00656585       0.02399469      -0.02107578
O        2.22228266       6.60602210      18.18583371  T       0.01798475       0.02613475      -0.03964264
109
Lattice="12.51515363 0.0 0.0 0.0 12.51515363 0.0 0.0 0.0 25.30973" Properties=species:S:1:pos:R:3:move_mask:L:1:forces:R:3 energy=-453.0608499 stress="0.007959212033460226 -3.532101846033878e-05 -3.83074307808549e-05 -3.532101846033878e-05 0.007663035779332226 -0.00016059553401267555 -3.83074307808549e-05 -0.00016059553401267555 0.002224638197641587" free_energy=-453.06020037 pbc="T T T"
Cu       1.25151999       1.25151999      10.00000011  F       0.00407317      -0.00152211      -0.05941288
Cu       3.75454997       1.25151999      10.00000011  F      -0.00413575       0.01416330      -0.06439127
Cu       6.25757994       1.25151999      10.00000011  F       0.00945491       0.01166687      -0.06458405
Cu       8.76061004       1.25151999      10.00000011  F      -0.00390875       0.00381410      -0.05185259
Cu      11.26364002       1.25151999      10.00000011  F      -0.00872116      -0.00601094      -0.07247357
Cu       1.25151999       3.75454997      10.00000011  F       0.00036144       0.00490602      -0.05680529
Cu       3.75454997       3.75454997      10.00000011  F       0.00526142      -0.01620963      -0.03917362
Cu       6.25757994       3.75454997      10.00000011  F      -0.01243060      -0.02040049      -0.07342701
Cu       8.76061004       3.75454997      10.00000011  F       0.00822742      -0.01448509      -0.08124991
Cu      11.26364002       3.75454997      10.00000011  F       0.00044971       0.00453035      -0.05033505
Cu       1.25151999       6.25757994      10.00000011  F      -0.00504294      -0.00113235      -0.07120895
Cu       3.75454997       6.25757994      10.00000011  F       0.01457336       0.02300296      -0.05276128
Cu       6.25757994       6.25757994      10.00000011  F      -0.01740792       0.02970674      -0.08090193
Cu       8.76061004       6.25757994      10.00000011  F       0.00852818       0.01456383      -0.07399477
Cu      11.26364002       6.25757994      10.00000011  F       0.00271182       0.00582136      -0.05862735
Cu       1.25151999       8.76061004      10.00000011  F       0.00193608      -0.00613524      -0.05721548
Cu       3.75454997       8.76061004      10.00000011  F       0.00399369      -0.02275797      -0.07103734
Cu       6.25757994       8.76061004      10.00000011  F      -0.00225608      -0.02674504      -0.06563615
Cu       8.76061004       8.76061004      10.00000011  F       0.00020051      -0.00776806      -0.04562132
Cu      11.26364002       8.76061004      10.00000011  F      -0.00552192      -0.00808087      -0.07829939
Cu       1.25151999      11.26364002      10.00000011  F       0.00596297       0.00459028      -0.02238572
Cu       3.75454997      11.26364002      10.00000011  F      -0.01312173       0.00153615      -0.05739263
Cu       6.25757994      11.26364002      10.00000011  F       0.01403681       0.00509561      -0.06159594
Cu       8.76061004      11.26364002      10.00000011  F      -0.00856837       0.00274796      -0.07116930
Cu      11.26364002      11.26364002      10.00000011  F      -0.00144896       0.00327274      -0.04114530
Cu       0.00000000       0.00000000      11.76991004  F       0.01790933       0.06731403       0.08249984
Cu       2.50302998       0.00000000      11.76991004  F       0.03405127       0.04036174       0.04834106
Cu       5.00605995       0.00000000      11.76991004  F       0.02100398       0.10410182       0.08286756
Cu       7.50909005       0.00000000      11.76991004  F       0.01443135       0.09019906       0.06399204
Cu      10.01212003       0.00000000      11.76991004  F      -0.05966102       0.07017499       0.05232292
Cu       0.00000000       2.50302998      11.76991004  F      -0.08785443       0.00538391       0.04594063
Cu       2.50302998       2.50302998      11.76991004  F       0.10296643       0.00339109       0.02257350
Cu       5.00605995       2.50302998      11.76991004  F      -0.04404219      -0.03079772       0.06477686
Cu       7.50909005       2.50302998      11.76991004  F      -0.01728148      -0.02179952       0.06268245
Cu      10.01212003       2.50302998      11.76991004  F       0.03389113      -0.02792997       0.03763365
Cu       0.00000000       5.00605995      11.76991004  F      -0.10388020      -0.01875979       0.03367220
Cu       2.50302998       5.00605995      11.76991004  F       0.10144556      -0.02056982       0.12021987
Cu       5.00605995       5.00605995      11.76991004  F      -0.06425723      -0.01226966       0.14364528
Cu       7.50909005       5.00605995      11.76991004  F      -0.05008963       0.01158822       0.09716434
Cu      10.01212003       5.00605995      11.76991004  F       0.03795694       0.00556221       0.04882036
Cu       0.00000000       7.50909005      11.76991004  F      -0.10694605      -0.01522838       0.02984100
Cu       2.50302998       7.50909005      11.76991004  F       0.09660001       0.00339911       0.02001114
Cu       5.00605995       7.50909005      11.76991004  F      -0.01312942       0.03065297       0.05115564
Cu       7.50909005       7.50909005      11.76991004  F      -0.01127617       0.02460154       0.08771282
Cu      10.01212003       7.50909005      11.76991004  F       0.03926200       0.02968274       0.05525443
Cu       0.00000000      10.01212003      11.76991004  F       0.00326269      -0.08632029       0.07632803
Cu       2.50302998      10.01212003      11.76991004  F       0.03434459      -0.06372096       0.05775263
Cu       5.00605995      10.01212003      11.76991004  F       0.04313271      -0.09641930       0.07131149
Cu       7.50909005      10.01212003      11.76991004  F       0.01220748      -0.09300098       0.06334805
Cu      10.01212003      10.01212003      11.76991004  F      -0.05260308      -0.09345584       0.06509571
Cu       1.27718119       1.24814366      13.58773078  T       0.00007756       0.00013501       0.00031835
Cu       3.76648004       1.27168328      13.61720750  T      -0.00010279       0.00018167       0.00043162
Cu       6.27772721       1.27903556      13.60395887  T      -0.00010809       0.00004541       0.00011030
Cu       8.75225968       1.28248236      13.60990033  T      -0.00007478       0.00001568       0.00000633
Cu      11.24857390       1.25379925      13.58347748  T       0.00002909       0.00007190       0.00006988
Cu       1.25007700       3.73716855      13.56207759  T      -0.00029129      -0.00025337      -0.00052034
Cu       3.74978182       3.73817014      13.61696402  T       0.00023648      -0.00024479      -0.00048490
Cu       6.26951339       3.76760027      13.57197268  T       0.00014638      -0.00006120       0.00004270
Cu       8.74333225       3.76842640      13.55936768  T      -0.00006020       0.00001425       0.00003494
Cu      11.23045033       3.76861750      13.60580774  T      -0.00007740      -0.00007118       0.00002284
Cu       1.24468622       6.25916236      13.55361351  T      -0.00001061       0.00043620      -0.00020911
Cu       3.75572602       6.26385667      13.60317553  T       0.00008622       0.00055394      -0.00008029
Cu       6.27062674       6.25170871      13.57495063  T       0.00009894      -0.00000309      -0.00004831
Cu       8.74489389       6.24530884      13.56233854  T      -0.00008776      -0.00004419      -0.00000731
Cu      11.23368387       6.24563473      13.60914964  T      -0.00012614      -0.00003952      -0.00010582
Cu       1.26747994       8.75440153      13.58083109  T       0.00031813      -0.00009186       0.00040947
Cu       3.77823139       8.74156999      13.60752147  T      -0.00026868      -0.00018222       0.00056727
Cu       6.27859301       8.73406903      13.61278766  T      -0.00014893      -0.00004844      -0.00006911
Cu       8.75621522       8.73047405      13.61312605  T      -0.00015757      -0.00003487      -0.00010506
Cu      11.25830556       8.74491692      13.59566841  T      -0.00006191       0.00000599      -0.00016528
Cu       1.24774492      11.25571893      13.58397304  T       0.00007993       0.00010989       0.00010594
Cu       3.74951350      11.26107191      13.56520587  T       0.00002112       0.00006074       0.00007460
Cu       6.25619201      11.26402886      13.56367312  T      -0.00002087      -0.00000393      -0.00003560
Cu       8.76157033      11.26344879      13.56809296  T      -0.00006833       0.00002677      -0.00013424
Cu      11.26948447      11.25729984      13.57128097  T      -0.00001008       0.00009806      -0.00001144
Cu      12.51178705      12.50775742      15.35436284  T      -0.00003852      -0.00001080       0.00020482
Cu       2.50916503      12.46789929      15.36122481  T       0.00007330       0.00063078       0.00039373
Cu       5.00649811      12.48976026      15.34816499  T       0.00007246      -0.00005997       0.00016923
Cu       7.50481099      12.50227791      15.34363025  T      -0.00002275       0.00000373       0.00001041
Cu      10.01308494      12.49505692      15.34804401  T      -0.00007559      -0.00000621       0.00002786
Cu      12.51355582       2.47693713      15.30606403  T      -0.00001701       0.00004436       0.00028238
Cu       2.50265164       2.41554880      15.47388019  T      -0.00020746       0.00093701       0.00144993
Cu       5.02648919       2.42190625      15.44442118  T      -0.00015647      -0.00008159       0.00044313
Cu       7.54585231       2.51820573      15.47671766  T      -0.00006452      -0.00009284      -0.00002626
Cu      10.07155987       2.45058147      15.43794442  T      -0.00024349       0.00003306       0.00012258
Cu      12.49985473       4.99796602      15.34699391  T       0.00053091       0.00011478      -0.00022700
Cu       2.41829951       5.04530635      15.34983113  T       0.00050390      -0.00109862      -0.00386582
Pd       4.97703568       5.01598196      15.49439778  T       0.00069595       0.00032576       0.00092924
Y        7.48369668       5.01406664      17.24087064  T      -0.00037078      -0.00060264      -0.00222533
Cu       9.98770997       5.00747616      15.45523401  T       0.00042929      -0.00002356       0.00024493
Cu       0.04413506       7.50258993      15.34640040  T      -0.00043505       0.00009951      -0.00022343
Cu       2.51254374       7.52736030      15.40991339  T      -0.00032721      -0.00051220       0.00279936
Cu       4.99851995       7.59936611      15.47346309  T       0.00012844      -0.00007444       0.00018835
Cu       7.54234432       7.49993684      15.47771234  T      -0.00000357       0.00005738       0.00005262
Cu      10.09162642       7.55988155      15.44266317  T      -0.00038315      -0.00003154       0.00012201
Cu      12.51372014       9.99957784      15.36212963  T      -0.00003441       0.00001092       0.00010887
Cu       2.50995899       9.99918662      15.36153486  T       0.00004161       0.00027068       0.00033781
Cu       5.00559964      10.04810985      15.35375110  T       0.00006756      -0.00008012       0.00007136
Cu       7.50678939      10.03168359      15.34599291  T      -0.00004837      -0.00003846      -0.00001017
Cu      10.01378892      10.03177820      15.35091464  T      -0.00006103      -0.00000519       0.00001739
O        6.12166875       3.43058007      16.67159483  T      -0.00044443      -0.00055591      -0.00042139
O        6.12726616       6.60691367      16.68599277  T      -0.00061999      -0.00022595      -0.00023682
O        8.98592486       6.44270773      16.54385662  T       0.00024522       0.00017662       0.00002301
O        8.98494968       3.58128868      16.54731469  T       0.00031578      -0.00056556      -0.00028781
C        2.29325310       4.42448965      17.14975030  T       0.00159725       0.00873193      -0.00637802
O        2.36596939       3.19141899      17.41464041  T      -0.00047455       0.00869565       0.00235255
H        2.16938487       4.89235265      19.31021213  T      -0.00058818       0.03617448      -0.01161502
C        2.22148970       5.38536835      18.30810754  T       0.00630454       0.02494566      -0.01825986
O        2.22245612       6.60627428      18.18545128  T       0.01554002       0.01782481      -0.02905755
109
Lattice="12.51515363 0.0 0.0 0.0 12.51515363 0.0 0.0 0.0 25.30973" Properties=species:S:1:pos:R:3:move_mask:L:1:forces:R:3 energy=-453.0604312 stress="0.007959794453642798 -3.52745067343327e-05 -3.8324139300784884e-05 -3.52745067343327e-05 0.007661869703148274 -0.00015844952217143227 -3.8324139300784884e-05 -0.00015844952217143227 0.0022348097229206556" free_energy=-453.05978909 pbc="T T T"
Cu       1.25151999       1.25151999      10.00000011  F       0.00406767      -0.00149872      -0.05957523
Cu       3.75454997       1.25151999      10.00000011  F      -0.00403027       0.01418816      -0.06446375
Cu       6.25757994       1.25151999      10.00000011  F       0.00954115       0.01167066      -0.06455059
Cu       8.76061004       1.25151999      10.00000011  F      -0.00392262       0.00381729      -0.05184878
Cu      11.26364002       1.25151999      10.00000011  F      -0.00877906      -0.00602500      -0.07259775
Cu       1.25151999       3.75454997      10.00000011  F       0.00037668       0.00497292      -0.05693281
Cu       3.75454997       3.75454997      10.00000011  F       0.00534525      -0.01615393      -0.03926018
Cu       6.25757994       3.75454997      10.00000011  F      -0.01236337      -0.02039474      -0.07345503
Cu       8.76061004       3.75454997      10.00000011  F       0.00822218      -0.01444670      -0.08128893
Cu      11.26364002       3.75454997      10.00000011  F       0.00040064       0.00461110      -0.05044462
Cu       1.25151999       6.25757994      10.00000011  F      -0.00508231      -0.00098873      -0.07120906
Cu       3.75454997       6.25757994      10.00000011  F       0.01460104       0.02308411      -0.05281465
Cu       6.25757994       6.25757994      10.00000011  F      -0.01733310       0.02979574      -0.08093162
Cu       8.76061004       6.25757994      10.00000011  F       0.00858582       0.01469352      -0.07396792
Cu      11.26364002       6.25757994      10.00000011  F       0.00270100       0.00596445      -0.05860129
Cu       1.25151999       8.76061004      10.00000011  F       0.00190480      -0.00606798      -0.05716438
Cu       3.75454997       8.76061004      10.00000011  F       0.00403794      -0.02265472      -0.07103081
Cu       6.25757994       8.76061004      10.00000011  F      -0.00215081      -0.02660626      -0.06557719
Cu       8.76061004       8.76061004      10.00000011  F       0.00022978      -0.00765780      -0.04548563
Cu      11.26364002       8.76061004      10.00000011  F      -0.00555310      -0.00799724      -0.07816910
Cu       1.25151999      11.26364002      10.00000011  F       0.00593364       0.00458563      -0.02240874
Cu       3.75454997      11.26364002      10.00000011  F      -0.01302922       0.00156129      -0.05740513
Cu       6.25757994      11.26364002      10.00000011  F       0.01412610       0.00515243      -0.06151001
Cu       8.76061004      11.26364002      10.00000011  F      -0.00854483       0.00276612      -0.07105695
Cu      11.26364002      11.26364002      10.00000011  F      -0.00150127       0.00327424      -0.04105107
Cu       0.00000000       0.00000000      11.76991004  F       0.01787625       0.06735007       0.08245505
Cu       2.50302998       0.00000000      11.76991004  F       0.03410809       0.04042338       0.04832592
Cu       5.00605995       0.00000000      11.76991004  F       0.02111102       0.10415123       0.08282658
Cu       7.50909005       0.00000000      11.76991004  F       0.01443020       0.09023639       0.06392532
Cu      10.01212003       0.00000000      11.76991004  F      -0.05968001       0.07019355       0.05227375
Cu       0.00000000       2.50302998      11.76991004  F      -0.08788049       0.00536522       0.04588080
Cu       2.50302998       2.50302998      11.76991004  F       0.10302973       0.00337912       0.02249053
Cu       5.00605995       2.50302998      11.76991004  F      -0.04394258      -0.03078521       0.06471222
Cu       7.50909005       2.50302998      11.76991004  F      -0.01726844      -0.02181005       0.06261044
Cu      10.01212003       2.50302998      11.76991004  F       0.03384125      -0.02792929       0.03760270
Cu       0.00000000       5.00605995      11.76991004  F      -0.10392112      -0.01858792       0.03361620
Cu       2.50302998       5.00605995      11.76991004  F       0.10147188      -0.02046258       0.12016084
Cu       5.00605995       5.00605995      11.76991004  F      -0.06418531      -0.01220436       0.14354255
Cu       7.50909005       5.00605995      11.76991004  F      -0.05003498       0.01166285       0.09712404
Cu      10.01212003       5.00605995      11.76991004  F       0.03794950       0.00570496       0.04879960
Cu       0.00000000       7.50909005      11.76991004  F      -0.10696669      -0.01512847       0.02973888
Cu       2.50302998       7.50909005      11.76991004  F       0.09659566       0.00351715       0.01989455
Cu       5.00605995       7.50909005      11.76991004  F      -0.01307666       0.03076413       0.05109083
Cu       7.50909005       7.50909005      11.76991004  F      -0.01118666       0.02472838       0.08762595
Cu      10.01212003       7.50909005      11.76991004  F       0.03925352       0.02978914       0.05518167
Cu       0.00000000      10.01212003      11.76991004  F       0.00323859      -0.08632743       0.07628029
Cu       2.50302998      10.01212003      11.76991004  F       0.03435402      -0.06370797       0.05769281
Cu       5.00605995      10.01212003      11.76991004  F       0.04319178      -0.09635870       0.07125073