109
Lattice="12.51515363 0.0 0.0 0.0 12.51515363 0.0 0.0 0.0 25.30973" Properties=species:S:1:pos:R:3:move_mask:L:1:forces:R:3 energy=-453.26041714999997 stress="0.008561177820177564 5.185533162911574e-06 -5.190668052469437e-05 5.185533162911574e-06 0.008733739013750562 -0.00022466974322735045 -5.190668052469437e-05 -0.00022466974322735045 0.003481007385574753" free_energy=-453.26216367 pbc="T T T"
Cu       1.25151999       1.25151999      10.00000011  F      -0.00368673      -0.02242048      -0.07334547
Cu       3.75454997       1.25151999      10.00000011  F       0.00045543       0.00390560      -0.06325179
Cu       6.25757994       1.25151999      10.00000011  F      -0.01205629       0.01661323      -0.04986295
Cu       8.76061004       1.25151999      10.00000011  F       0.01240225       0.01220806      -0.04199853
Cu      11.26364002       1.25151999      10.00000011  F       0.00011902      -0.00353297      -0.07017423
Cu       1.25151999       3.75454997      10.00000011  F      -0.00344259       0.00589041      -0.05852851
Cu       3.75454997       3.75454997      10.00000011  F       0.00982249      -0.01058318      -0.06130634
Cu       6.25757994       3.75454997      10.00000011  F      -0.02243278      -0.01622588      -0.07349976
Cu       8.76061004       3.75454997      10.00000011  F       0.02594435      -0.01590665      -0.06984079
Cu      11.26364002       3.75454997      10.00000011  F      -0.00833013       0.00478406      -0.06058188
Cu       1.25151999       6.25757994      10.00000011  F      -0.00061439      -0.01748687      -0.06323629
Cu       3.75454997       6.25757994      10.00000011  F       0.01003634       0.00128928      -0.04841621
Cu       6.25757994       6.25757994      10.00000011  F       0.00076934       0.02597590      -0.08739557
Cu       8.76061004       6.25757994      10.00000011  F       0.00096458       0.02744364      -0.08996512
Cu      11.26364002       6.25757994      10.00000011  F      -0.01000058      -0.01326059      -0.05021621
Cu       1.25151999       8.76061004      10.00000011  F       0.00224518       0.02192299      -0.07310488
Cu       3.75454997       8.76061004      10.00000011  F      -0.00696691       0.00260800      -0.06678351
Cu       6.25757994       8.76061004      10.00000011  F       0.01836762      -0.02236152      -0.04713509
Cu       8.76061004       8.76061004      10.00000011  F      -0.01776868      -0.02341562      -0.04292726
Cu      11.26364002       8.76061004      10.00000011  F       0.00385321       0.00113280      -0.06836293
Cu       1.25151999      11.26364002      10.00000011  F      -0.00822426       0.00905374      -0.02707159
Cu       3.75454997      11.26364002      10.00000011  F      -0.01083170       0.00397564      -0.07009102
Cu       6.25757994      11.26364002      10.00000011  F      -0.00228322      -0.00309269      -0.07387363
Cu       8.76061004      11.26364002      10.00000011  F      -0.00453100       0.00080851      -0.07126665
Cu      11.26364002      11.26364002      10.00000011  F       0.02498825       0.01103521      -0.07128057
Cu       0.00000000       0.00000000      11.76991004  F      -0.03488763      -0.01302419       0.11802649
Cu       2.50302998       0.00000000      11.76991004  F       0.06501240      -0.02523250       0.10663470
Cu       5.00605995       0.00000000      11.76991004  F       0.01455711       0.09364852       0.13679661
Cu       7.50909005       0.00000000      11.76991004  F       0.01739964       0.09097450       0.10817213
Cu      10.01212003       0.00000000      11.76991004  F      -0.00556311       0.06426324       0.13624178
Cu       0.00000000       2.50302998      11.76991004  F      -0.11454726       0.02517392       0.13000634
Cu       2.50302998       2.50302998      11.76991004  F       0.10097951       0.02513344       0.12538321
Cu       5.00605995       2.50302998      11.76991004  F      -0.05062801      -0.04949796       0.14962142
Cu       7.50909005       2.50302998      11.76991004  F      -0.04562200      -0.00097492       0.12769055
Cu      10.01212003       2.50302998      11.76991004  F       0.07317957      -0.06630059       0.10352354
Cu       0.00000000       5.00605995      11.76991004  F      -0.11701281       0.00306735       0.06197488
Cu       2.50302998       5.00605995      11.76991004  F       0.08950113      -0.02345579       0.11152977
Cu       5.00605995       5.00605995      11.76991004  F      -0.05585454      -0.00186700       0.17161518
Cu       7.50909005       5.00605995      11.76991004  F      -0.06716182      -0.02447216       0.17692645
Cu      10.01212003       5.00605995      11.76991004  F       0.03289718       0.00912972       0.09487888
Cu       0.00000000       7.50909005      11.76991004  F      -0.08305965      -0.05546814       0.11880785
Cu       2.50302998       7.50909005      11.76991004  F       0.07057138      -0.04585000       0.10594929
Cu       5.00605995       7.50909005      11.76991004  F       0.00921544      -0.00496709       0.10392052
Cu       7.50909005       7.50909005      11.76991004  F      -0.02375356       0.05746560       0.14585210
Cu      10.01212003       7.50909005      11.76991004  F       0.03647659       0.02796401       0.07906613
Cu       0.00000000      10.01212003      11.76991004  F      -0.02864382      -0.01526701       0.14419345
Cu       2.50302998      10.01212003      11.76991004  F       0.04728121       0.00108766       0.13080879
Cu       5.00605995      10.01212003      11.76991004  F       0.00814373      -0.05397643       0.14694391
Cu       7.50909005      10.01212003      11.76991004  F       0.02413209      -0.11012496       0.08225642
Cu      10.01212003      10.01212003      11.76991004  F       0.01636938      -0.05790870       0.18271095
Cu       1.26577012       1.22585529      13.56423196  T       0.00206407      -0.01866598      -0.00904337
Cu       3.75730868       1.25777332      13.63328880  T      -0.00063120      -0.00492561       0.00223210
Cu       6.27736565       1.28610124      13.61931909  T      -0.00176514       0.00094077      -0.00573006
Cu       8.75890898       1.28410032      13.61604528  T      -0.00100145      -0.00691823      -0.00505477
Cu      11.27601463       1.25537441      13.61965115  T       0.00602927      -0.00339376       0.00570736
Cu       1.23427186       3.74121945      13.57149180  T       0.00486311       0.00152165      -0.01500475
Cu       3.74260088       3.73320775      13.62940046  T      -0.01987502      -0.01635825      -0.00922591
Cu       6.25479757       3.77090890      13.59197243  T       0.01193720       0.01212076      -0.03988134
Cu       8.73992512       3.76673735      13.56769129  T      -0.01431664       0.00495003      -0.03243679
Cu      11.23161687       3.75591525      13.62198825  T       0.01283102      -0.01187861       0.00723108
Cu       1.23823366       6.24623571      13.57496455  T       0.00004444       0.00433937      -0.01076258
Cu       3.76504042       6.24903109      13.60941109  T      -0.03128175       0.00901561      -0.01719708
Cu       6.26523171       6.24786756      13.59083299  T       0.02326264      -0.00715792      -0.04909460
Cu       8.74413322       6.24805967      13.56732076  T      -0.02552043      -0.00222249      -0.03464762
Cu      11.22604437       6.24106470      13.62110520  T       0.01592183       0.00308428      -0.00391009
Cu       1.26193410       8.75941022      13.57940084  T      -0.00117236       0.00043818      -0.00345539
Cu       3.79033242       8.74463583      13.60185841  T      -0.01218594      -0.00172284      -0.00201606
Cu       6.28537723       8.73638584      13.62672117  T       0.00406972      -0.01016673       0.00346784
Cu       8.75999905       8.73236109      13.62926101  T      -0.01242050      -0.00572879       0.00249273
Cu      11.25254070       8.73936632      13.60442583  T       0.00924003       0.00915764      -0.00325364
Cu       1.25186266      11.26693926      13.62223680  T      -0.00513244       0.00363346      -0.00037697
Cu       3.74039070      11.27172043      13.59683671  T      -0.01887987       0.01546508       0.00757357
Cu       6.26328272      11.25950163      13.56550276  T      -0.00532686       0.00816070       0.00098496
Cu       8.76422354      11.25776703      13.57211037  T      -0.00562720       0.00577946      -0.00436652
Cu      11.28449627      11.27248047      13.60335295  T       0.02251940       0.01017833       0.01066070
Cu      12.44513084      12.45710534      15.48357432  T      -0.05280601      -0.02186059      -0.10435237
Cu       2.60529630      12.44057983      15.46727562  T       0.05100414      -0.02770196      -0.10250549
Cu       5.05525514      12.48801915      15.36341916  T      -0.00146370      -0.01145631      -0.05219898
Cu       7.51867854      12.49454405      15.36240526  T      -0.00032988       0.01169475      -0.06716937
Cu       9.98618662      12.49756809      15.36440675  T       0.00693313      -0.01139679      -0.05660652
Cu       0.02576858       2.50398463      15.39715653  T      -0.03244184       0.01743886      -0.07990449
Cu       2.49455697       2.52253947      15.46183327  T       0.03615408       0.00905872      -0.07617380
Cu       4.97528656       2.42709466      15.48964334  T      -0.04486986      -0.06773960      -0.10831360
Cu       7.53249914       2.51149147      15.48614048  T       0.02297293      -0.10327565      -0.12302067
Cu      10.08270674       2.45846226      15.45859235  T       0.05479456      -0.05905215      -0.10651631
Cu      12.47513480       5.01435499      15.38005728  T      -0.00315665      -0.00156653      -0.05204683
Cu       2.39143298       5.01935730      15.38610630  T      -0.01436741       0.00335792      -0.04781897
Pd       4.90595286       5.00727054      15.55475035  T       0.03631497      -0.01388063      -0.06879312
Y        7.48199211       4.99521106      17.25216333  T      -0.02094635      -0.01493804       0.07292871
Cu       9.96885639       5.00183221      15.46991972  T       0.08434534      -0.00202437      -0.13335131
Cu       0.05700252       7.49569546      15.37589307  T      -0.01825610      -0.00422990      -0.06283136
Cu       2.51947701       7.48545180      15.37208243  T       0.01886830       0.00202386      -0.06362907
Cu       4.99704491       7.59550906      15.48304687  T      -0.05304626       0.08042341      -0.09590431
Cu       7.54446588       7.49636151      15.49698772  T       0.01197214       0.07539085      -0.13311396
Cu      10.09457511       7.55580224      15.47216039  T       0.04755661       0.05841518      -0.09201327
Cu      12.50540182       9.95713069      15.38147032  T      -0.00782381       0.01302699      -0.07391060
Cu       2.51844001       9.94367903      15.37670348  T      -0.00375275       0.01191512      -0.07170960
Cu       5.00500793      10.05193123      15.37756452  T      -0.00191727       0.00168649      -0.05485208
Cu       7.50901283      10.03409689      15.37406520  T      -0.00161002      -0.01532558      -0.07057191
Cu      10.01648706      10.03765031      15.37980873  T       0.00347294      -0.00023821      -0.06038469
O        6.13806273       3.41206878      16.66136210  T      -0.10962201       0.06535080       0.14022202
O        6.13633939       6.57355866      16.65039464  T      -0.10146424      -0.03011183       0.12986335
O        8.96496986       6.41862945      16.53157912  T       0.07437124       0.09242476       0.12216292
O        8.96271526       3.57837165      16.53407643  T       0.05752923      -0.05978665       0.11609254
C        1.21726552       1.77014220      16.82052588  T      -0.02531569      -0.52674453       0.53912521
O        1.29392897       0.38868037      16.90748126  T      -0.05326918       0.88713133       0.08833180
H        0.94040116       1.71170394      18.99397414  T       0.00970000       0.24588625      -0.22802127
C        0.99489927       2.44721902      18.13799680  T       0.06861183      -0.40083279      -0.24223488
O        0.87708099       3.66201655      18.32323390  T       0.02643070      -0.05259042      -0.10168509
109
Lattice="12.51515363 0.0 0.0 0.0 12.51515363 0.0 0.0 0.0 25.30973" Properties=species:S:1:pos:R:3:move_mask:L:1:forces:R:3 energy=-453.27649618000004 stress="0.008527469888543266 7.949179781215793e-06 -4.75155354357796e-05 7.949179781215793e-06 0.00859375361071303 -0.00022103736591985102 -4.75155354357796e-05 -0.00022103736591985102 0.003353941238586322" free_energy=-453.27830295 pbc="T T T"
Cu       1.25151999       1.25151999      10.00000011  F      -0.00398131      -0.02228498      -0.07343464
Cu       3.75454997       1.25151999      10.00000011  F       0.00056372       0.00388626      -0.06365742
Cu       6.25757994       1.25151999      10.00000011  F      -0.01134041       0.01641884      -0.04993782
Cu       8.76061004       1.25151999      10.00000011  F       0.01220188       0.01173886      -0.04205687
Cu      11.26364002       1.25151999      10.00000011  F      -0.00014765      -0.00379498      -0.07077036
Cu       1.25151999       3.75454997      10.00000011  F      -0.00358752       0.00592788      -0.05918871
Cu       3.75454997       3.75454997      10.00000011  F       0.00995607      -0.01049980      -0.06162277
Cu       6.25757994       3.75454997      10.00000011  F      -0.02183470      -0.01627520      -0.07346487
Cu       8.76061004       3.75454997      10.00000011  F       0.02563185      -0.01611850      -0.06978940
Cu      11.26364002       3.75454997      10.00000011  F      -0.00855685       0.00459549      -0.06068764
Cu       1.25151999       6.25757994      10.00000011  F      -0.00070711      -0.01774189      -0.06366114
Cu       3.75454997       6.25757994      10.00000011  F       0.01044472       0.00152308      -0.04871825
Cu       6.25757994       6.25757994      10.00000011  F       0.00069679       0.02612577      -0.08720937
Cu       8.76061004       6.25757994      10.00000011  F       0.00116710       0.02760231      -0.08965079
Cu      11.26364002       6.25757994      10.00000011  F      -0.01038662      -0.01299386      -0.05032544
Cu       1.25151999       8.76061004      10.00000011  F       0.00205301       0.02166797      -0.07283844
Cu       3.75454997       8.76061004      10.00000011  F      -0.00630584       0.00209873      -0.06675488
Cu       6.25757994       8.76061004      10.00000011  F       0.01867113      -0.02214676      -0.04688107
Cu       8.76061004       8.76061004      10.00000011  F      -0.01776462      -0.02279782      -0.04268426
Cu      11.26364002       8.76061004      10.00000011  F       0.00313014       0.00104646      -0.06800363
Cu       1.25151999      11.26364002      10.00000011  F      -0.00863713       0.00926390      -0.02736361
Cu       3.75454997      11.26364002      10.00000011  F      -0.01041409       0.00402603      -0.07041540
Cu       6.25757994      11.26364002      10.00000011  F      -0.00106441      -0.00331759      -0.07386552
Cu       8.76061004      11.26364002      10.00000011  F      -0.00486830       0.00056362      -0.07199497
Cu      11.26364002      11.26364002      10.00000011  F       0.02416378       0.01117948      -0.07268282
Cu       0.00000000       0.00000000      11.76991004  F      -0.03578958      -0.01304145       0.11651219
Cu       2.50302998       0.00000000      11.76991004  F       0.06533640      -0.02535174       0.10546544
Cu       5.00605995       0.00000000      11.76991004  F       0.01474778       0.09360842       0.13697453
Cu       7.50909005       0.00000000      11.76991004  F       0.01776769       0.09017059       0.10690239
Cu      10.01212003       0.00000000      11.76991004  F      -0.00557225       0.06409042       0.13607031
Cu       0.00000000       2.50302998      11.76991004  F      -0.11503914       0.02504849       0.12902454
Cu       2.50302998       2.50302998      11.76991004  F       0.10093502       0.02489696       0.12416924
Cu       5.00605995       2.50302998      11.76991004  F      -0.05046257      -0.04962677       0.14874050
Cu       7.50909005       2.50302998      11.76991004  F      -0.04532500      -0.00168336       0.12631758
Cu      10.01212003       2.50302998      11.76991004  F       0.07324729      -0.06640572       0.10283499
Cu       0.00000000       5.00605995      11.76991004  F      -0.11767054       0.00269764       0.06184483
Cu       2.50302998       5.00605995      11.76991004  F       0.08959402      -0.02361578       0.11089158
Cu       5.00605995       5.00605995      11.76991004  F      -0.05611420      -0.00197518       0.17072761
Cu       7.50909005       5.00605995      11.76991004  F      -0.06685516      -0.02385307       0.17405101
Cu      10.01212003       5.00605995      11.76991004  F       0.03316374       0.00877743       0.09438334
Cu       0.00000000       7.50909005      11.76991004  F      -0.08358695      -0.05538827       0.11813761
Cu       2.50302998       7.50909005      11.76991004  F       0.07052451      -0.04573699       0.10511408
Cu       5.00605995       7.50909005      11.76991004  F       0.00979430      -0.00425350       0.10315044
Cu       7.50909005       7.50909005      11.76991004  F      -0.02366296       0.05810135       0.14424839
Cu      10.01212003       7.50909005      11.76991004  F       0.03615354       0.02856308       0.07858795
Cu       0.00000000      10.01212003      11.76991004  F      -0.02919752      -0.01519529       0.14415188
Cu       2.50302998      10.01212003      11.76991004  F       0.04743257       0.00107420       0.13112426
Cu       5.00605995      10.01212003      11.76991004  F       0.00876168      -0.05438022       0.14735567
Cu       7.50909005      10.01212003      11.76991004  F       0.02433896      -0.10992726       0.08147733
Cu      10.01212003      10.01212003      11.76991004  F       0.01574402      -0.05793224       0.18242033
Cu       1.26579002       1.22567520      13.56414464  T       0.00175925      -0.01611196      -0.00763668
Cu       3.75730268       1.25772576      13.63331031  T      -0.00137131      -0.00438771      -0.00135017
Cu       6.27734863       1.28611038      13.61926391  T      -0.00143196       0.00060908      -0.00911929
Cu       8.75889922       1.28403349      13.61599643  T      -0.00037859      -0.00710112      -0.00916280
Cu      11.27607282       1.25534175      13.61970608  T       0.00629111      -0.00298272       0.00119160
Cu       1.23431879       3.74123422      13.57134703  T       0.00441413       0.00026054      -0.01405229
Cu       3.74240914       3.73304981      13.62931137  T      -0.01716112      -0.01377919      -0.01136581
Cu       6.25491271       3.77102592      13.59158772  T       0.01104437       0.01086521      -0.03739034
Cu       8.73978696       3.76678503      13.56737846  T      -0.01283672       0.00467447      -0.03018292
Cu      11.23174077       3.75580073      13.62205786  T       0.01107427      -0.01055269       0.00217239
Cu       1.23823403       6.24627751      13.57486052  T      -0.00051606       0.00431396      -0.01202198
Cu       3.76473856       6.24911807      13.60924506  T      -0.02761571       0.00722991      -0.01795731
Cu       6.26545623       6.24779848      13.59035944  T       0.02040468      -0.00617732      -0.04566975
Cu       8.74388692       6.24803827      13.56698641  T      -0.02238583      -0.00210452      -0.03193645
Cu      11.22619793       6.24109448      13.62106749  T       0.01428296       0.00311667      -0.00735023
Cu       1.26192271       8.75941435      13.57936768  T      -0.00130417      -0.00048590      -0.00623242
Cu       3.79021478       8.74461918      13.60183892  T      -0.01095480      -0.00064681      -0.00667571
Cu       6.28541640       8.73628772      13.62675484  T       0.00294773      -0.00910754      -0.00067953
Cu       8.75987916       8.73230577      13.62928505  T      -0.01021397      -0.00477055      -0.00196702
Cu      11.25262994       8.73945468      13.60439445  T       0.00786875       0.00881657      -0.00771798
Cu       1.25181310      11.26697431      13.62223325  T      -0.00475709       0.00416000      -0.00043556
Cu       3.74020848      11.27186973      13.59690986  T      -0.01636679       0.01230413       0.00257066
Cu       6.26323129      11.25958035      13.56551212  T      -0.00491983       0.00692930      -0.00219426
Cu       8.76416923      11.25782285      13.57206836  T      -0.00495838       0.00470969      -0.00704240
Cu      11.28471366      11.27257872      13.60345571  T       0.01920046       0.00810635       0.00526757
Cu      12.44462135      12.45689446      15.48256750  T      -0.05261415      -0.02582509      -0.11313425
Cu       2.60578840      12.44031251      15.46628651  T       0.04512519      -0.02899995      -0.10509039
Cu       5.05524100      12.48790852      15.36291550  T      -0.00015892      -0.01113165      -0.04828000
Cu       7.51867528      12.49465694      15.36175707  T      -0.00032407       0.00870893      -0.06458764
Cu       9.98625358      12.49745808      15.36386057  T       0.00528085      -0.01145681      -0.05288736
Cu       0.02545557       2.50415283      15.39638559  T      -0.00823002       0.01480478      -0.06385981
Cu       2.49490589       2.52262683      15.46109827  T       0.01316472       0.00671978      -0.06569637
Cu       4.97485354       2.42644111      15.48859831  T      -0.03125399      -0.05513155      -0.09274732
Cu       7.53272079       2.51049501      15.48495345  T       0.01898339      -0.08652931      -0.10477609
Cu      10.08323538       2.45789257      15.45756453  T       0.04219989      -0.04767038      -0.09208198
Cu      12.47510426       5.01433985      15.37955513  T       0.00015438      -0.00372975      -0.04722119
Cu       2.39129443       5.01938959      15.38564490  T      -0.01315599       0.00097058      -0.04421925
Pd       4.90630329       5.00713663      15.55408673  T       0.03659669      -0.01062126      -0.05992745
Y        7.48178999       4.99506689      17.25286694  T      -0.01099138      -0.01030765       0.06458387
Cu       9.96967025       5.00181268      15.46863323  T       0.06815754      -0.00112454      -0.11626123
Cu       0.05682631       7.49565466      15.37528690  T      -0.01553769      -0.00388031      -0.06047835
Cu       2.51965898       7.48547133      15.37146842  T       0.01541869       0.00204922      -0.06092742
Cu       4.99653304       7.59628513      15.48212155  T      -0.04059330       0.06539557      -0.08243475
Cu       7.54458140       7.49708902      15.49570351  T       0.00865706       0.06024983      -0.11591964
Cu      10.09503404       7.55636592      15.47127253  T       0.03772982       0.04805329      -0.08127864
Cu      12.50532636       9.95725635      15.38075734  T      -0.00580908       0.01335194      -0.06919535
Cu       2.51840371       9.94379404      15.37601151  T      -0.00503679       0.01278226      -0.06711322
Cu       5.00498940      10.05194750      15.37703529  T      -0.00185378       0.00299529      -0.05228372
Cu       7.50899719      10.03394896      15.37338436  T      -0.00154406      -0.01264936      -0.06774505
Cu      10.01652060      10.03764794      15.37922610  T       0.00282187       0.00083636      -0.05790304
O        6.13700495       3.41269930      16.66271516  T      -0.10871279       0.05335017       0.12072457
O        6.13536046       6.57326819      16.65164772  T      -0.09972289      -0.02109669       0.11140119
O        8.96568748       6.41952128      16.53275780  T       0.07278569       0.09007609       0.10540367
O        8.96327030       3.57779482      16.53519664  T       0.05867142      -0.06113985       0.09775878
C        1.21702122       1.76505980      16.82572779  T      -0.02300116      -0.25275474       0.36620369
O        1.29341497       0.39723986      16.90833344  T      -0.02771647       0.55939528       0.11627749
H        0.94049477       1.71407644      18.99177422  T       0.00613371       0.17781223      -0.15612672
C        0.99556120       2.44335159      18.13565944  T       0.02811904      -0.09216850      -0.13053873
O        0.87733592       3.66150919      18.32225290  T       0.04679190      -0.22757711      -0.15571753
109
Lattice="12.51515363 0.0 0.0 0.0 12.51515363 0.0 0.0 0.0 25.30973" Properties=species:S:1:pos:R:3:move_mask:L:1:forces:R:3 energy=-453.29050977 stress="0.008524438013070276 2.3942503904997687e-05 -4.477671129926902e-05 2.3942503904997687e-05 0.008335911657062673 -0.0002465532294453014 -4.477671129926902e-05 -0.0002465532294453014 0.003208357239311927" free_energy=-453.29237156 pbc="T T T"
Cu       1.25151999       1.25151999      10.00000011  F      -0.00392262      -0.02245520      -0.07309326
Cu       3.75454997       1.25151999      10.00000011  F       0.00021259       0.00384954      -0.06347962
Cu       6.25757994       1.25151999      10.00000011  F      -0.01100040       0.01641564      -0.04985816
Cu       8.76061004       1.25151999      10.00000011  F       0.01192898       0.01175216      -0.04221602
Cu      11.26364002       1.25151999      10.00000011  F       0.00015792      -0.00389455      -0.07096873
Cu       1.25151999       3.75454997      10.00000011  F      -0.00356310       0.00611954      -0.05952907
Cu       3.75454997       3.75454997      10.00000011  F       0.00953368      -0.01046760      -0.06156466
Cu       6.25757994       3.75454997      10.00000011  F      -0.02158357      -0.01658599      -0.07343601
Cu       8.76061004       3.75454997      10.00000011  F       0.02545968      -0.01641960      -0.07005190
Cu      11.26364002       3.75454997      10.00000011  F      -0.00820677       0.00469857      -0.06080303
Cu       1.25151999       6.25757994      10.00000011  F      -0.00077784      -0.01802809      -0.06368013
Cu       3.75454997       6.25757994      10.00000011  F       0.01016706       0.00160188      -0.04901135
Cu       6.25757994       6.25757994      10.00000011  F       0.00009965       0.02595243      -0.08767806
Cu       8.76061004       6.25757994      10.00000011  F       0.00191100       0.02754797      -0.08997450
Cu      11.26364002       6.25757994      10.00000011  F      -0.01011899      -0.01286740      -0.05045825
Cu       1.25151999       8.76061004      10.00000011  F       0.00195270       0.02181445      -0.07279554
Cu       3.75454997       8.76061004      10.00000011  F      -0.00650570       0.00170956      -0.06695154
Cu       6.25757994       8.76061004      10.00000011  F       0.01845341      -0.02186555      -0.04733680
Cu       8.76061004       8.76061004      10.00000011  F      -0.01730581      -0.02247761      -0.04315029
Cu      11.26364002       8.76061004      10.00000011  F       0.00325919       0.00075934      -0.06807014
Cu       1.25151999      11.26364002      10.00000011  F      -0.00874933       0.00955747      -0.02712638
Cu       3.75454997      11.26364002      10.00000011  F      -0.01097103       0.00449741      -0.07056718
Cu       6.25757994      11.26364002      10.00000011  F      -0.00067415      -0.00294153      -0.07405885
Cu       8.76061004      11.26364002      10.00000011  F      -0.00505400       0.00074122      -0.07217488
Cu      11.26364002      11.26364002      10.00000011  F       0.02465791       0.01146978      -0.07287932
Cu       0.00000000       0.00000000      11.76991004  F      -0.03574127      -0.01329104       0.11388852
Cu       2.50302998       0.00000000      11.76991004  F       0.06531398      -0.02561210       0.10303101
Cu       5.00605995       0.00000000      11.76991004  F       0.01393544       0.09420609       0.13715391
Cu       7.50909005       0.00000000      11.76991004  F       0.01759394       0.09009595       0.10586146
Cu      10.01212003       0.00000000      11.76991004  F      -0.00460579       0.06431465       0.13641131
Cu       0.00000000       2.50302998      11.76991004  F      -0.11484277       0.02484838       0.12772889
Cu       2.50302998       2.50302998      11.76991004  F       0.10088639       0.02425447       0.12227512
Cu       5.00605995       2.50302998      11.76991004  F      -0.05103280      -0.05002270       0.14778535
Cu       7.50909005       2.50302998      11.76991004  F      -0.04553120      -0.00291498       0.12445620
Cu      10.01212003       2.50302998      11.76991004  F       0.07384476      -0.06659765       0.10200907
Cu       0.00000000       5.00605995      11.76991004  F      -0.11781199       0.00217359       0.06096403
Cu       2.50302998       5.00605995      11.76991004  F       0.08942236      -0.02418780       0.10962215
Cu       5.00605995       5.00605995      11.76991004  F      -0.05761860      -0.00278231       0.16937711
Cu       7.50909005       5.00605995      11.76991004  F      -0.06681118      -0.02389978       0.16949842
Cu      10.01212003       5.00605995      11.76991004  F       0.03446183       0.00811956       0.09337130
Cu       0.00000000       7.50909005      11.76991004  F      -0.08345919      -0.05537440       0.11674243
Cu       2.50302998       7.50909005      11.76991004  F       0.06975771      -0.04548314       0.10324509
Cu       5.00605995       7.50909005      11.76991004  F       0.00933169      -0.00353547       0.10211113
Cu       7.50909005       7.50909005      11.76991004  F      -0.02358663       0.05898685       0.14179578
Cu      10.01212003       7.50909005      11.76991004  F       0.03674231       0.02919889       0.07782290
Cu       0.00000000      10.01212003      11.76991004  F      -0.02865175      -0.01436622       0.14335103
Cu       2.50302998      10.01212003      11.76991004  F       0.04676058       0.00204281       0.13067483
Cu       5.00605995      10.01212003      11.76991004  F       0.00834506      -0.05408089       0.14797077