109
Lattice="12.51515363 0.0 0.0 0.0 12.51515363 0.0 0.0 0.0 25.30973" Properties=species:S:1:pos:R:3:move_mask:L:1:forces:R:3 energy=-453.25696124 stress="0.008460039832082914 -0.00020858091153092427 -0.00016216896853123774 -0.00020858091153092427 0.008761188390697557 -9.897523028442383e-05 -0.00016216896853123774 -9.897523028442383e-05 0.003593840757160049" free_energy=-453.2563515 pbc="T T T"
Cu       1.25151999       1.25151999      10.00000011  F      -0.00076489      -0.02829199      -0.06289156
Cu       3.75454997       1.25151999      10.00000011  F      -0.00230125       0.00113974      -0.05777794
Cu       6.25757994       1.25151999      10.00000011  F      -0.01566047       0.01538184      -0.05189275
Cu       8.76061004       1.25151999      10.00000011  F       0.02153815       0.00954260      -0.04646952
Cu      11.26364002       1.25151999      10.00000011  F      -0.00568992      -0.00147470      -0.07525253
Cu       1.25151999       3.75454997      10.00000011  F      -0.00456566       0.01022364      -0.06149759
Cu       3.75454997       3.75454997      10.00000011  F       0.01222780      -0.01544274      -0.04962511
Cu       6.25757994       3.75454997      10.00000011  F      -0.02083915      -0.01615525      -0.07743281
Cu       8.76061004       3.75454997      10.00000011  F       0.03219894      -0.01715263      -0.07500560
Cu      11.26364002       3.75454997      10.00000011  F      -0.01684011      -0.00072111      -0.05097117
Cu       1.25151999       6.25757994      10.00000011  F      -0.00539686      -0.00927581      -0.07290069
Cu       3.75454997       6.25757994      10.00000011  F       0.01537382       0.02113107      -0.05999728
Cu       6.25757994       6.25757994      10.00000011  F      -0.01644033       0.02710621      -0.07751980
Cu       8.76061004       6.25757994      10.00000011  F       0.01712146       0.02237681      -0.08336595
Cu      11.26364002       6.25757994      10.00000011  F      -0.00636778       0.00049959      -0.05448137
Cu       1.25151999       8.76061004      10.00000011  F      -0.00444373      -0.00024930      -0.06567845
Cu       3.75454997       8.76061004      10.00000011  F       0.01839592      -0.01132665      -0.05953616
Cu       6.25757994       8.76061004      10.00000011  F      -0.01228392      -0.01323889      -0.05621142
Cu       8.76061004       8.76061004      10.00000011  F       0.00200392      -0.00729163      -0.05450499
Cu      11.26364002       8.76061004      10.00000011  F      -0.00612037      -0.01162359      -0.06294726
Cu       1.25151999      11.26364002      10.00000011  F      -0.01042017       0.02576343      -0.01962831
Cu       3.75454997      11.26364002      10.00000011  F      -0.00021836       0.00514028      -0.07202374
Cu       6.25757994      11.26364002      10.00000011  F      -0.00035908      -0.01326001      -0.05806859
Cu       8.76061004      11.26364002      10.00000011  F      -0.00570837      -0.00606756      -0.06497210
Cu      11.26364002      11.26364002      10.00000011  F       0.01330139       0.01427478      -0.06746739
Cu       0.00000000       0.00000000      11.76991004  F       0.01696367       0.07525837       0.14041188
Cu       2.50302998       0.00000000      11.76991004  F       0.00292236       0.07044191       0.14818070
Cu       5.00605995       0.00000000      11.76991004  F      -0.00691455       0.12802719       0.16033429
Cu       7.50909005       0.00000000      11.76991004  F      -0.00648465       0.04896302       0.10786206
Cu      10.01212003       0.00000000      11.76991004  F      -0.02137509       0.07643537       0.13223696
Cu       0.00000000       2.50302998      11.76991004  F      -0.04428043       0.03290254       0.18088299
Cu       2.50302998       2.50302998      11.76991004  F       0.02011117       0.03400263       0.16267080
Cu       5.00605995       2.50302998      11.76991004  F      -0.06465499      -0.05390461       0.11028363
Cu       7.50909005       2.50302998      11.76991004  F      -0.05052302      -0.01201265       0.12044197
Cu      10.01212003       2.50302998      11.76991004  F       0.03376478      -0.06629283       0.06059117
Cu       0.00000000       5.00605995      11.76991004  F      -0.06487731      -0.00834805       0.12175127
Cu       2.50302998       5.00605995      11.76991004  F       0.04293942      -0.03661129       0.16802719
Cu       5.00605995       5.00605995      11.76991004  F      -0.06408482      -0.02417153       0.16793388
Cu       7.50909005       5.00605995      11.76991004  F      -0.05274073       0.00231615       0.15314146
Cu      10.01212003       5.00605995      11.76991004  F       0.01924380       0.04729373       0.06936224
Cu       0.00000000       7.50909005      11.76991004  F      -0.09552041      -0.03369390       0.12507541
Cu       2.50302998       7.50909005      11.76991004  F       0.04850800      -0.02914107       0.14040273
Cu       5.00605995       7.50909005      11.76991004  F       0.00639674       0.03457622       0.10826677
Cu       7.50909005       7.50909005      11.76991004  F      -0.02684961       0.01033757       0.14340568
Cu      10.01212003       7.50909005      11.76991004  F       0.08158384       0.02276728       0.12042978
Cu       0.00000000      10.01212003      11.76991004  F      -0.02304868      -0.03065672       0.13535493
Cu       2.50302998      10.01212003      11.76991004  F       0.04018999      -0.00736777       0.13556000
Cu       5.00605995      10.01212003      11.76991004  F       0.04712509      -0.09421649       0.12356105
Cu       7.50909005      10.01212003      11.76991004  F       0.02141910      -0.08657306       0.11078758
Cu      10.01212003      10.01212003      11.76991004  F      -0.04411869      -0.10462934       0.12749070
Cu       1.25349576       1.27422761      13.62418818  T       0.00212108      -0.02140097      -0.01260351
Cu       3.74676141       1.27382926      13.64133704  T       0.00214921      -0.00691459      -0.01663879
Cu       6.26056831       1.27305357      13.61724875  T       0.00244593      -0.01267828      -0.00515443
Cu       8.74510903       1.26697333      13.60583685  T      -0.00458963      -0.01552173       0.00388215
Cu      11.25962816       1.27186513      13.61096131  T       0.00680251      -0.00979360      -0.01826769
Cu       1.23217332       3.74395389      13.60484775  T       0.00558371      -0.00156670      -0.01189393
Cu       3.74192568       3.73110095      13.62967128  T      -0.00952555      -0.00297196      -0.00591595
Cu       6.25443388       3.76558208      13.57950233  T       0.00287963       0.00508398      -0.05168469
Cu       8.73672575       3.76260610      13.56623725  T       0.00003293       0.00363691      -0.02417885
Cu      11.21787248       3.77275126      13.60236106  T       0.00366674       0.00629218       0.00139842
Cu       1.22787436       6.25626936      13.58181918  T       0.00078674       0.00048927      -0.00305812
Cu       3.77213977       6.26117104      13.59977137  T      -0.01876622       0.00168387      -0.01191093
Cu       6.27486900       6.24770999      13.58979934  T      -0.00395994       0.00139403      -0.05616056
Cu       8.74954828       6.24273972      13.57033135  T      -0.00131921       0.00299155      -0.03409755
Cu      11.23757045       6.23810899      13.63907612  T       0.01307438      -0.00500872       0.00324512
Cu       1.26050813       8.77693443      13.58299507  T       0.00366014       0.01317041      -0.00606916
Cu       3.78318940       8.75334888      13.61351329  T      -0.01789446       0.00833516      -0.02142584
Cu       6.28079242       8.73163821      13.62694238  T      -0.00569180       0.01335452      -0.00669738
Cu       8.75499963       8.72477703      13.62524865  T      -0.00063923       0.01966510      -0.00313462
Cu      11.25478805       8.74575919      13.61325766  T       0.01574178       0.01447993      -0.01702346
Cu       1.24857493      11.27819302      13.60766118  T      -0.00569644      -0.00961489      -0.01877387
Cu       3.75035589      11.26609224      13.58284828  T      -0.02127999      -0.00798184      -0.00785883
Cu       6.25869442      11.25878139      13.57820850  T      -0.00307271       0.00461127      -0.00575392
Cu       8.76325637      11.25355781      13.58091588  T      -0.00021394       0.01030800      -0.00455208
Cu      11.27170028      11.26263530      13.58171263  T       0.02333812      -0.00977143      -0.00010485
Cu      12.50623295       0.01352538      15.39520186  T      -0.02799713       0.01715022      -0.07022497
Cu       2.50376186      12.48790939      15.39027203  T       0.00798635      -0.00358069      -0.08147610
Cu       5.00537212      12.48205793      15.37617502  T       0.01605499       0.00917583      -0.05404796
Cu       7.51046371      12.49732817      15.36699999  T      -0.00741739       0.01342125      -0.06987752
Cu      10.01617243      12.47758101      15.36976178  T      -0.00347019       0.01512007      -0.04995434
Cu      12.45771859       2.52405706      15.43217735  T       0.00500704      -0.02708277      -0.08053462
Cu       2.51618578       2.50660030      15.51963183  T       0.02398339       0.00275780      -0.06315924
Cu       5.00033439       2.42082118      15.47845341  T      -0.02061206      -0.07073121      -0.10566152
Cu       7.49981907       2.51318277      15.47831294  T      -0.00101694      -0.09458799      -0.11809241
Cu      10.00397191       2.42102468      15.42631764  T       0.04480101      -0.06900994      -0.09033160
Cu       0.01302465       5.02111142      15.43404951  T       0.01564645      -0.03455541      -0.00077824
Cu       2.44652693       5.04482426      15.35214014  T      -0.02983075       0.00087430      -0.07026091
Pd       4.94574492       5.00200529      15.53433628  T       0.00734790       0.01957564      -0.08714378
Y        7.48333687       5.01168213      17.25874133  T      -0.01361986      -0.01338957       0.08832064
Cu       9.94301010       5.00156301      15.46366923  T       0.09010022       0.03437764      -0.14729399
Cu       0.04154280       7.53626821      15.36991769  T       0.00501672      -0.01195387      -0.05121625
Cu       2.50675311       7.51528092      15.36796530  T      -0.00640597      -0.01188322      -0.04978611
Cu       4.98532584       7.58736057      15.48638573  T      -0.04740645       0.07185820      -0.08515976
Cu       7.53162809       7.49708151      15.49561442  T       0.00448693       0.07206552      -0.13405631
Cu      10.08059231       7.54730657      15.46552317  T       0.05414036       0.05855012      -0.08241088
Cu       0.00399359      10.02664899      15.40294765  T      -0.01681658      -0.01815299      -0.10004073
Cu       2.50784668       9.99941326      15.39773840  T       0.01349268      -0.01020039      -0.09513000
Cu       5.00436077      10.04211297      15.38384437  T       0.01577044      -0.00487490      -0.05849402
Cu       7.51221171      10.02985700      15.37421478  T      -0.00610282      -0.00797114      -0.06173246
Cu      10.02178861      10.02109940      15.37771258  T      -0.00921368      -0.00707944      -0.06035083
O        6.10968700       3.43618023      16.67416781  T      -0.08179554       0.03231889       0.14027807
O        6.12496687       6.58781605      16.67026025  T      -0.09899476      -0.02891887       0.12521181
O        8.94938987       6.44340970      16.54375614  T       0.07135129       0.07897460       0.09410553
O        8.92065183       3.58596296      16.49273805  T       0.08007388      -0.06061379       0.11162302
C        0.00732487       3.67129404      17.07495979  T       0.29906540      -0.02212925       0.40675872
O       11.71044377       4.54927236      17.50971008  T       0.21090491      -0.27376115      -0.06154098
H        0.66090361       2.75922493      18.98862772  T       0.13986933       0.08110960      -0.28409711
C        0.99719255       2.96352856      17.94122478  T      -0.36467311       0.12088287      -0.14657025
O        2.09036406       2.47696592      17.53907342  T      -0.17279582       0.14328177      -0.00876861
109
Lattice="12.51515363 0.0 0.0 0.0 12.51515363 0.0 0.0 0.0 25.30973" Properties=species:S:1:pos:R:3:move_mask:L:1:forces:R:3 energy=-453.26199451 stress="0.008434188069260835 -0.000165320843258681 -0.00016898638170416625 -0.000165320843258681 0.008748837929616605 -9.02988522749514e-05 -0.00016898638170416625 -9.02988522749514e-05 0.003584450231917902" free_energy=-453.2613698 pbc="T T T"
Cu       1.25151999       1.25151999      10.00000011  F      -0.00042542      -0.02846481      -0.06225858
Cu       3.75454997       1.25151999      10.00000011  F      -0.00209014       0.00073519      -0.05816517
Cu       6.25757994       1.25151999      10.00000011  F      -0.01589602       0.01503490      -0.05258937
Cu       8.76061004       1.25151999      10.00000011  F       0.02130161       0.00901940      -0.04700662
Cu      11.26364002       1.25151999      10.00000011  F      -0.00575136      -0.00178950      -0.07431415
Cu       1.25151999       3.75454997      10.00000011  F      -0.00457552       0.01059318      -0.06223152
Cu       3.75454997       3.75454997      10.00000011  F       0.01227841      -0.01524672      -0.05020570
Cu       6.25757994       3.75454997      10.00000011  F      -0.02110934      -0.01593786      -0.07800947
Cu       8.76061004       3.75454997      10.00000011  F       0.03229420      -0.01686676      -0.07564036
Cu      11.26364002       3.75454997      10.00000011  F      -0.01670411      -0.00010989      -0.05153116
Cu       1.25151999       6.25757994      10.00000011  F      -0.00545962      -0.00853743      -0.07305285
Cu       3.75454997       6.25757994      10.00000011  F       0.01518554       0.02151030      -0.06028424
Cu       6.25757994       6.25757994      10.00000011  F      -0.01657608       0.02737721      -0.07807405
Cu       8.76061004       6.25757994      10.00000011  F       0.01735034       0.02286814      -0.08372370
Cu      11.26364002       6.25757994      10.00000011  F      -0.00622202       0.00121758      -0.05467270
Cu       1.25151999       8.76061004      10.00000011  F      -0.00462343      -0.00030385      -0.06557387
Cu       3.75454997       8.76061004      10.00000011  F       0.01792357      -0.01105345      -0.05973070
Cu       6.25757994       8.76061004      10.00000011  F      -0.01217954      -0.01302807      -0.05681272
Cu       8.76061004       8.76061004      10.00000011  F       0.00230951      -0.00697050      -0.05499524
Cu      11.26364002       8.76061004      10.00000011  F      -0.00586225      -0.01158381      -0.06332971
Cu       1.25151999      11.26364002      10.00000011  F      -0.01026675       0.02492728      -0.01973732
Cu       3.75454997      11.26364002      10.00000011  F      -0.00025952       0.00476923      -0.07250521
Cu       6.25757994      11.26364002      10.00000011  F      -0.00045380      -0.01356740      -0.05883507
Cu       8.76061004      11.26364002      10.00000011  F      -0.00557528      -0.00657188      -0.06584155
Cu      11.26364002      11.26364002      10.00000011  F       0.01313304       0.01330618      -0.06788627
Cu       0.00000000       0.00000000      11.76991004  F       0.01715196       0.07488842       0.13992174
Cu       2.50302998       0.00000000      11.76991004  F       0.00305906       0.06989047       0.14724762
Cu       5.00605995       0.00000000      11.76991004  F      -0.00751369       0.12746140       0.15964655
Cu       7.50909005       0.00000000      11.76991004  F      -0.00629716       0.04832567       0.10681939
Cu      10.01212003       0.00000000      11.76991004  F      -0.02131023       0.07554897       0.13183323
Cu       0.00000000       2.50302998      11.76991004  F      -0.04390409       0.03309954       0.18065436
Cu       2.50302998       2.50302998      11.76991004  F       0.01982564       0.03396288       0.16260946
Cu       5.00605995       2.50302998      11.76991004  F      -0.06518909      -0.05427010       0.10945468
Cu       7.50909005       2.50302998      11.76991004  F      -0.05041039      -0.01252823       0.11956119
Cu      10.01212003       2.50302998      11.76991004  F       0.03410770      -0.06628739       0.06056569
Cu       0.00000000       5.00605995      11.76991004  F      -0.06470530      -0.00770416       0.12123745
Cu       2.50302998       5.00605995      11.76991004  F       0.04251705      -0.03624822       0.16756256
Cu       5.00605995       5.00605995      11.76991004  F      -0.06524911      -0.02374530       0.16651163
Cu       7.50909005       5.00605995      11.76991004  F      -0.05241150       0.00269389       0.15123179
Cu      10.01212003       5.00605995      11.76991004  F       0.02020412       0.04780098       0.06859238
Cu       0.00000000       7.50909005      11.76991004  F      -0.09529379      -0.03353986       0.12458191
Cu       2.50302998       7.50909005      11.76991004  F       0.04775571      -0.02891647       0.13939154
Cu       5.00605995       7.50909005      11.76991004  F       0.00550407       0.03512524       0.10735137
Cu       7.50909005       7.50909005      11.76991004  F      -0.02646173       0.01129834       0.14210601
Cu      10.01212003       7.50909005      11.76991004  F       0.08249472       0.02342866       0.11995771
Cu       0.00000000      10.01212003      11.76991004  F      -0.02289832      -0.03131142       0.13379277
Cu       2.50302998      10.01212003      11.76991004  F       0.03972621      -0.00756183       0.13398052
Cu       5.00605995      10.01212003      11.76991004  F       0.04676537      -0.09415567       0.12259346
Cu       7.50909005      10.01212003      11.76991004  F       0.02156156      -0.08642843       0.10985372
Cu      10.01212003      10.01212003      11.76991004  F      -0.04364958      -0.10471349       0.12684196
Cu       1.25351616       1.27402111      13.62406644  T       0.00298723      -0.02026191      -0.01459670
Cu       3.74678219       1.27376255      13.64117632  T       0.00103284      -0.00717242      -0.01942674
Cu       6.26059184       1.27293129      13.61719889  T       0.00175987      -0.01212022      -0.00913481
Cu       8.74506472       1.26682352      13.60587431  T      -0.00379296      -0.01485119      -0.00045237
Cu      11.25969374       1.27177064      13.61078516  T       0.00686336      -0.00994540      -0.02118334
Cu       1.23222726       3.74393875      13.60473284  T       0.00374922      -0.00217091      -0.01170710
Cu       3.74183382       3.73107229      13.62961433  T      -0.00869467      -0.00283509      -0.00792087
Cu       6.25446167       3.76563114      13.57900373  T       0.00232534       0.00443854      -0.04779225
Cu       8.73672612       3.76264127      13.56600414  T       0.00011315       0.00328142      -0.02198090
Cu      11.21790790       3.77281196      13.60237448  T       0.00561992       0.00508036       0.00136365
Cu       1.22788187       6.25627411      13.58178982  T      -0.00009289       0.00082505      -0.00509829
Cu       3.77195880       6.26118719      13.59965647  T      -0.01797517       0.00213052      -0.01365504
Cu       6.27483083       6.24772338      13.58925746  T      -0.00430865       0.00222954      -0.05264339
Cu       8.74953551       6.24276851      13.57000232  T      -0.00098507       0.00389983      -0.03221662
Cu      11.23769661       6.23806056      13.63910750  T       0.01410668      -0.00400900       0.00057144
Cu       1.26054342       8.77706146      13.58293661  T       0.00314717       0.01119683      -0.00865202
Cu       3.78301669       8.75342935      13.61330676  T      -0.01756277       0.00790980      -0.02400493
Cu       6.28073761       8.73176700      13.62687784  T      -0.00611207       0.01277805      -0.01003235
Cu       8.75499349       8.72496676      13.62521853  T       0.00040311       0.01885174      -0.00710239
Cu      11.25493998       8.74589886      13.61309340  T       0.01556578       0.01318454      -0.02025078
Cu       1.24851999      11.27810028      13.60747996  T      -0.00557020      -0.00889106      -0.01989101
Cu       3.75015064      11.26601527      13.58277235  T      -0.01952821      -0.00749967      -0.00979327
Cu       6.25866476      11.25882581      13.57815307  T      -0.00360852       0.00412445      -0.00812660
Cu       8.76325425      11.25365731      13.58087209  T       0.00058601       0.00939835      -0.00666776
Cu      11.27192543      11.26254094      13.58171162  T       0.02125831      -0.00889858      -0.00244390
Cu      12.50596288       0.01369083      15.39452432  T      -0.02624604       0.01493659      -0.06761317
Cu       2.50383895      12.48787485      15.38948591  T       0.00701689      -0.00290928      -0.07756941
Cu       5.00552693      12.48214654      15.37565364  T       0.01480532       0.00636957      -0.05202155
Cu       7.51039213      12.49745770      15.36632573  T      -0.00688155       0.01037237      -0.06632648
Cu      10.01613902      12.47772694      15.36927963  T      -0.00345937       0.01156161      -0.04815024
Cu      12.45776689       2.52379574      15.43140034  T       0.01247673      -0.01976062      -0.06661696
Cu       2.51641718       2.50662696      15.51902237  T       0.01670992       0.00369805      -0.04796068
Cu       5.00013553       2.42013873      15.47743393  T      -0.01036364      -0.05545987      -0.09175090
Cu       7.49980919       2.51227016      15.47717349  T      -0.00132079      -0.07858936      -0.10134283
Cu      10.00440418       2.42035875      15.42544597  T       0.03529122      -0.05496701      -0.07957205
Cu       0.01317558       5.02077802      15.43404192  T       0.01576373      -0.03802200       0.00015305
Cu       2.44623921       5.04483265      15.35146209  T      -0.02732824      -0.00020595      -0.06651097
Pd       4.94581576       5.00219414      15.53349549  T       0.01166815       0.01586589      -0.07291764
Y        7.48320546       5.01155298      17.25959351  T      -0.00718108      -0.01113972       0.07685871
Cu       9.94387940       5.00189466      15.46224809  T       0.07583718       0.03043988      -0.13093710
Cu       0.04159111       7.53615282      15.36942365  T       0.00604549      -0.01274443      -0.04935189
Cu       2.50669128       7.51516628      15.36748492  T      -0.00771603      -0.01145706      -0.04825918
Cu       4.98486842       7.58805391      15.48556417  T      -0.03647020       0.05963848      -0.07387901
Cu       7.53167139       7.49777685      15.49432109  T       0.00227613       0.05765337      -0.11762795
Cu      10.08111469       7.54787151      15.46472794  T       0.04498533       0.04917796      -0.07265856
Cu       0.00383139      10.02647378      15.40198233  T      -0.01557955      -0.01721602      -0.09610392
Cu       2.50797697       9.99931477      15.39682067  T       0.01249401      -0.00982850      -0.09151170
Cu       5.00451295      10.04206591      15.38327996  T       0.01473347      -0.00264082      -0.05672729
Cu       7.51215276      10.02978016      15.37361924  T      -0.00571687      -0.00574814      -0.05911638
Cu      10.02169975      10.02103107      15.37713020  T      -0.00884083      -0.00457536      -0.05831892
O        6.10889779       3.43649211      16.67552113  T      -0.08360456       0.02556166       0.12344907
O        6.12401172       6.58753709      16.67146828  T      -0.09905492      -0.02260421       0.10980597
O        8.95007833       6.44417175      16.54466400  T       0.07087362       0.07758883       0.08184432
O        8.92142439       3.58537813      16.49381498  T       0.08251734      -0.06062553       0.09683140
C        0.01021049       3.67108053      17.07888432  T       0.27756439      -0.05420254       0.25351547
O       11.71247861       4.54663091      17.50911632  T       0.11442714      -0.16561439      -0.00998666
H        0.66225312       2.76000750      18.98588667  T       0.10013789       0.07307011      -0.22207232
C        0.99367404       2.96469484      17.93981073  T      -0.21638797       0.05487673      -0.11746218
O        2.08869679       2.47834834      17.53898889  T      -0.16388434       0.13938559      -0.03414711
109
Lattice="12.51515363 0.0 0.0 0.0 12.51515363 0.0 0.0 0.0 25.30973" Properties=species:S:1:pos:R:3:move_mask:L:1:forces:R:3 energy=-453.27506063999994 stress="0.008251530086239042 -8.326083296196854e-05 -0.00019118025192943824 -8.326083296196854e-05 0.008626108339478274 -6.660630208591795e-05 -0.00019118025192943824 -6.660630208591795e-05 0.0034029202081838294" free_energy=-453.27442719 pbc="T T T"
Cu       1.25151999       1.25151999      10.00000011  F      -0.00012646      -0.02775428      -0.06208361
Cu       3.75454997       1.25151999      10.00000011  F      -0.00177929       0.00101854      -0.05775516
Cu       6.25757994       1.25151999      10.00000011  F      -0.01625907       0.01512634      -0.05218122
Cu       8.76061004       1.25151999      10.00000011  F       0.02108955       0.00930338      -0.04648895
Cu      11.26364002       1.25151999      10.00000011  F      -0.00564066      -0.00128228      -0.07412710
Cu       1.25151999       3.75454997      10.00000011  F      -0.00438232       0.01033494      -0.06192371
Cu       3.75454997       3.75454997      10.00000011  F       0.01248555      -0.01521722      -0.04975464
Cu       6.25757994       3.75454997      10.00000011  F      -0.02162133      -0.01594879      -0.07755226
Cu       8.76061004       3.75454997      10.00000011  F       0.03234916      -0.01691354      -0.07540007
Cu      11.26364002       3.75454997      10.00000011  F      -0.01653894      -0.00017650      -0.05110247
Cu       1.25151999       6.25757994      10.00000011  F      -0.00505366      -0.00902611      -0.07294635
Cu       3.75454997       6.25757994      10.00000011  F       0.01533693       0.02082101      -0.05980490
Cu       6.25757994       6.25757994      10.00000011  F      -0.01690098       0.02702578      -0.07786050
Cu       8.76061004       6.25757994      10.00000011  F       0.01713210       0.02242755      -0.08373027
Cu      11.26364002       6.25757994      10.00000011  F      -0.00616422       0.00049021      -0.05480297
Cu       1.25151999       8.76061004      10.00000011  F      -0.00415641      -0.00066680      -0.06593450
Cu       3.75454997       8.76061004      10.00000011  F       0.01812697      -0.01108217      -0.05953746
Cu       6.25757994       8.76061004      10.00000011  F      -0.01209109      -0.01311622      -0.05657152
Cu       8.76061004       8.76061004      10.00000011  F       0.00168203      -0.00710185      -0.05498128
Cu      11.26364002       8.76061004      10.00000011  F      -0.00586246      -0.01172135      -0.06394223
Cu       1.25151999      11.26364002      10.00000011  F      -0.00983024       0.02511627      -0.01965778
Cu       3.75454997      11.26364002      10.00000011  F       0.00021054       0.00502629      -0.07225775
Cu       6.25757994      11.26364002      10.00000011  F      -0.00087112      -0.01342850      -0.05852471
Cu       8.76061004      11.26364002      10.00000011  F      -0.00579040      -0.00640052      -0.06582380
Cu      11.26364002      11.26364002      10.00000011  F       0.01293870       0.01359193      -0.06798249
Cu       0.00000000       0.00000000      11.76991004  F       0.01721759       0.07577923       0.13721263
Cu       2.50302998       0.00000000      11.76991004  F       0.00389008       0.07021142       0.14431027
Cu       5.00605995       0.00000000      11.76991004  F      -0.00791138       0.12737849       0.15789844
Cu       7.50909005       0.00000000      11.76991004  F      -0.00645744       0.04820164       0.10443861
Cu      10.01212003       0.00000000      11.76991004  F      -0.02153534       0.07563421       0.13042444
Cu       0.00000000       2.50302998      11.76991004  F      -0.04343410       0.03368282       0.17864734
Cu       2.50302998       2.50302998      11.76991004  F       0.01966623       0.03424934       0.16100085
Cu       5.00605995       2.50302998      11.76991004  F      -0.06574708      -0.05491805       0.10670955
Cu       7.50909005       2.50302998      11.76991004  F      -0.05012725      -0.01374641       0.11666943
Cu      10.01212003       2.50302998      11.76991004  F       0.03424164      -0.06627099       0.05919720
Cu       0.00000000       5.00605995      11.76991004  F      -0.06433167      -0.00833368       0.11935231
Cu       2.50302998       5.00605995      11.76991004  F       0.04249384      -0.03690291       0.16583662
Cu       5.00605995       5.00605995      11.76991004  F      -0.06742672      -0.02375164       0.16258773
Cu       7.50909005       5.00605995      11.76991004  F      -0.05218523       0.00229747       0.14594571
Cu      10.01212003       5.00605995      11.76991004  F       0.02164259       0.04703355       0.06612251
Cu       0.00000000       7.50909005      11.76991004  F      -0.09462628      -0.03492972       0.12357502
Cu       2.50302998       7.50909005      11.76991004  F       0.04767343      -0.02994479       0.13720134
Cu       5.00605995       7.50909005      11.76991004  F       0.00443331       0.03561701       0.10497875
Cu       7.50909005       7.50909005      11.76991004  F      -0.02661193       0.01290789       0.13875722
Cu      10.01212003       7.50909005      11.76991004  F       0.08297152       0.02343037       0.11894383
Cu       0.00000000      10.01212003      11.76991004  F      -0.02256871      -0.03123810       0.13023247
Cu       2.50302998      10.01212003      11.76991004  F       0.04007373      -0.00723677       0.13046762
Cu       5.00605995      10.01212003      11.76991004  F       0.04723234      -0.09397592       0.12060035