109
Lattice="12.51515363 0.0 0.0 0.0 12.51515363 0.0 0.0 0.0 25.30973" Properties=species:S:1:pos:R:3:move_mask:L:1:forces:R:3 energy=-453.18778805 stress="0.008445382790096946 -1.2241159773138542e-05 0.00021845382428888332 -1.2241159773138542e-05 0.009018772701092706 3.0805461370017766e-05 0.00021845382428888332 3.0805461370017766e-05 0.003523288454416074" free_energy=-453.19156051 pbc="T T T"
Cu       1.25151999       1.25151999      10.00000011  F       0.00255401      -0.01418531      -0.07527735
Cu       3.75454997       1.25151999      10.00000011  F      -0.00445377       0.00624120      -0.07098329
Cu       6.25757994       1.25151999      10.00000011  F       0.00900721       0.02921387      -0.05282082
Cu       8.76061004       1.25151999      10.00000011  F      -0.00367783       0.01438887      -0.05696366
Cu      11.26364002       1.25151999      10.00000011  F      -0.00526194      -0.01370783      -0.06579266
Cu       1.25151999       3.75454997      10.00000011  F       0.00002137       0.00934141      -0.06017255
Cu       3.75454997       3.75454997      10.00000011  F       0.01095676      -0.01256999      -0.05047972
Cu       6.25757994       3.75454997      10.00000011  F       0.00191651      -0.02510956      -0.08475360
Cu       8.76061004       3.75454997      10.00000011  F      -0.00755960      -0.02370888      -0.07876710
Cu      11.26364002       3.75454997      10.00000011  F      -0.00440417       0.00577824      -0.05045894
Cu       1.25151999       6.25757994      10.00000011  F      -0.00042110      -0.00787295      -0.06231291
Cu       3.75454997       6.25757994      10.00000011  F       0.01260857       0.01360783      -0.05049676
Cu       6.25757994       6.25757994      10.00000011  F       0.00139204       0.02703810      -0.08810872
Cu       8.76061004       6.25757994      10.00000011  F      -0.00830755       0.02463502      -0.07866335
Cu      11.26364002       6.25757994      10.00000011  F      -0.00431459      -0.00401613      -0.05207474
Cu       1.25151999       8.76061004      10.00000011  F       0.00261034       0.01145821      -0.07435563
Cu       3.75454997       8.76061004      10.00000011  F      -0.00496800      -0.00826589      -0.07018761
Cu       6.25757994       8.76061004      10.00000011  F       0.00902362      -0.03197592      -0.05046849
Cu       8.76061004       8.76061004      10.00000011  F      -0.00297768      -0.01607649      -0.05707445
Cu      11.26364002       8.76061004      10.00000011  F      -0.00554797       0.01055233      -0.06499250
Cu       1.25151999      11.26364002      10.00000011  F       0.00174947       0.00201362      -0.01856506
Cu       3.75454997      11.26364002      10.00000011  F      -0.01017261       0.00166042      -0.06603658
Cu       6.25757994      11.26364002      10.00000011  F      -0.00635199       0.00153830      -0.07268211
Cu       8.76061004      11.26364002      10.00000011  F       0.00482735       0.00120000      -0.07430309
Cu      11.26364002      11.26364002      10.00000011  F       0.00510740       0.00197807      -0.06903539
Cu       0.00000000       0.00000000      11.76991004  F      -0.00218338       0.03922138       0.15755295
Cu       2.50302998       0.00000000      11.76991004  F       0.03726249       0.04069067       0.12187404
Cu       5.00605995       0.00000000      11.76991004  F       0.06388371       0.09737774       0.12245978
Cu       7.50909005       0.00000000      11.76991004  F       0.02407354       0.06954913       0.13014292
Cu      10.01212003       0.00000000      11.76991004  F      -0.01414897       0.07122283       0.11522487
Cu       0.00000000       2.50302998      11.76991004  F      -0.04008070       0.04749278       0.13888944
Cu       2.50302998       2.50302998      11.76991004  F       0.06708008       0.06320943       0.15577193
Cu       5.00605995       2.50302998      11.76991004  F      -0.04772534       0.01176328       0.17988792
Cu       7.50909005       2.50302998      11.76991004  F      -0.03417121      -0.02191955       0.11707926
Cu      10.01212003       2.50302998      11.76991004  F       0.06145625      -0.08749840       0.04138761
Cu       0.00000000       5.00605995      11.76991004  F      -0.06531675       0.00028901       0.09020759
Cu       2.50302998       5.00605995      11.76991004  F       0.06475361      -0.00045830       0.14232760
Cu       5.00605995       5.00605995      11.76991004  F      -0.07985142       0.00410166       0.30730634
Cu       7.50909005       5.00605995      11.76991004  F      -0.08682804       0.00635157       0.15557319
Cu      10.01212003       5.00605995      11.76991004  F       0.02471747       0.00132635       0.04048018
Cu       0.00000000       7.50909005      11.76991004  F      -0.03343854      -0.05459235       0.13962045
Cu       2.50302998       7.50909005      11.76991004  F       0.06942906      -0.06855017       0.15433555
Cu       5.00605995       7.50909005      11.76991004  F      -0.04064930      -0.01468474       0.18100515
Cu       7.50909005       7.50909005      11.76991004  F      -0.03279786       0.02126187       0.11939336
Cu      10.01212003       7.50909005      11.76991004  F       0.06415707       0.08746643       0.03782516
Cu       0.00000000      10.01212003      11.76991004  F      -0.00059426      -0.03696674       0.15202252
Cu       2.50302998      10.01212003      11.76991004  F       0.03983089      -0.04099984       0.11936125
Cu       5.00605995      10.01212003      11.76991004  F       0.06502988      -0.09306753       0.12113709
Cu       7.50909005      10.01212003      11.76991004  F       0.02417378      -0.06035814       0.12603615
Cu      10.01212003      10.01212003      11.76991004  F      -0.01066302      -0.06583973       0.11257643
Cu       1.27204072       1.25047948      13.58915622  T      -0.00348065      -0.01697566       0.00268847
Cu       3.79000052       1.26775590      13.60736429  T      -0.00753893      -0.00595500      -0.01437680
Cu       6.29611961       1.28386028      13.61840566  T       0.00217486      -0.00741311      -0.01262344
Cu       8.78180571       1.27925958      13.61855701  T      -0.00227231      -0.01286158      -0.00665329
Cu      11.26911815       1.26210356      13.61659247  T       0.00588044      -0.01056699      -0.01521384
Cu       1.24342244       3.77047851      13.59771470  T      -0.00157600      -0.00527886      -0.00722826
Cu       3.74922853       3.78332669      13.64783809  T      -0.01495119       0.00511209      -0.00170361
Cu       6.24488770       3.78341242      13.60308669  T      -0.00593983       0.01268349      -0.02754304
Cu       8.73474748       3.76487222      13.55349633  T      -0.00297065       0.00193812      -0.04863090
Cu      11.21583326       3.75345790      13.60171339  T      -0.00128560      -0.00217510      -0.00516009
Cu       1.24607265       6.23898543      13.59795464  T      -0.00194048       0.00467919      -0.00757985
Cu       3.75313275       6.22764069      13.64658248  T      -0.01802354      -0.00501454      -0.00228580
Cu       6.24826842       6.23215491      13.60467311  T      -0.00490334      -0.01471359      -0.02907417
Cu       8.73680810       6.24953746      13.55395216  T      -0.00006570      -0.00408833      -0.04876335
Cu      11.21827609       6.25830082      13.59992500  T      -0.00254060       0.00325189      -0.00454712
Cu       1.27365505       8.76002771      13.58818179  T      -0.00340050       0.01647392       0.00222916
Cu       3.79178330       8.74329295      13.60712334  T      -0.00791073       0.00927228      -0.01368815
Cu       6.29767249       8.73197450      13.61833252  T       0.00130225       0.00960922      -0.01236058
Cu       8.78399724       8.73647032      13.61640796  T      -0.00225615       0.01610686      -0.00375626
Cu      11.27158176       8.74963901      13.61600655  T       0.00374984       0.01045588      -0.01333986
Cu       1.25092690      11.26279049      13.60912610  T      -0.01791565       0.00261390      -0.01149762
Cu       3.74461844      11.26305143      13.58062507  T      -0.01572103       0.00229760      -0.00211859
Cu       6.25834449      11.26532594      13.57428296  T       0.00013602       0.00278478      -0.01273182
Cu       8.77084907      11.26525460      13.58080502  T      -0.01399628       0.00177321      -0.00871857
Cu      11.27324540      11.26342025      13.59117897  T       0.01857534       0.00176116       0.00080023
Cu       0.00354379       0.00644180      15.40106638  T      -0.00975866       0.01220911      -0.08362453
Cu       2.51040478       0.00139582      15.39467213  T       0.01435122       0.01296707      -0.08329226
Cu       5.00911440      12.48382257      15.36714425  T       0.00556696       0.00113708      -0.04648610
Cu       7.51595161      12.49767935      15.36383602  T      -0.00336512       0.00003428      -0.05672694
Cu      10.01970070      12.49980692      15.38352648  T      -0.01260660       0.00266071      -0.05723897
Cu       0.07068734       2.50843927      15.37147196  T       0.01101333       0.00269983      -0.04856383
Cu       2.54204246       2.49772593      15.37640989  T       0.00925933       0.01077985      -0.04559279
Cu       5.00655517       2.42956853      15.45520743  T      -0.05953881      -0.06044697      -0.08429109
Cu       7.61764737       2.51190873      15.45752277  T       0.04410056      -0.09816789      -0.13235457
Cu      10.12695632       2.47248762      15.48764970  T       0.04587844      -0.05496730      -0.07722130
Cu      12.32306167       5.00691987      15.35844631  T       0.01507242       0.00253907      -0.05807985
Cu       2.19786910       5.00311338      15.56772589  T       0.02196903       0.00085997      -0.11365158
Pd       4.74657939       5.00841868      15.80174446  T      -0.05033971       0.00662706      -0.11447839
Y        7.46540002       5.01560263      17.30204856  T      -0.06154210      -0.00214853       0.08059142
Cu       9.86342323       5.00518602      15.45414088  T       0.11170157       0.00079621      -0.14380765
Cu       0.07745403       7.50414669      15.37164559  T       0.01097101      -0.01185618      -0.04839422
Cu       2.54704277       7.50907791      15.37426185  T       0.01001752      -0.01352159      -0.04472347
Cu       5.00922366       7.58420025      15.45623399  T      -0.06084982       0.05363405      -0.08304282
Cu       7.62767489       7.51350239      15.45587611  T       0.05221339       0.08494000      -0.12642553
Cu      10.13575748       7.53877787      15.48611896  T       0.04269807       0.05819565      -0.07726887
Cu       0.00294331      10.00522818      15.40081024  T      -0.00963013      -0.00998320      -0.08298124
Cu       2.50975850      10.00510053      15.39440511  T       0.01406545      -0.00877146      -0.08448121
Cu       5.00844033      10.04627513      15.36669677  T       0.00849934      -0.00415721      -0.04592919
Cu       7.51590618      10.03925388      15.36312912  T      -0.00341297      -0.00808006      -0.05750989
Cu      10.01892702      10.02579371      15.38317265  T      -0.01224331      -0.00395604      -0.05791763
O        6.25544135       3.39727450      16.51745756  T      -0.04337095      -0.03805070       0.02924165
O        6.27027519       6.64295619      16.52372197  T      -0.04488663       0.03026798       0.02417735
O        9.01720649       6.43894617      16.58701199  T       0.06069021       0.10255673       0.10390795
O        9.00312231       3.57377333      16.58521272  T       0.06913358      -0.09474527       0.10819711
C        4.40822633       5.03206018      17.79733112  T      -0.35617243      -0.00366006       0.25830185
O        5.40868696       5.02472405      18.56399980  T      -0.35624354       0.00409274      -0.03177611
H        2.93564117       5.12065320      19.42033502  T      -0.02283625      -0.02690669      -0.27871468
C        3.03280606       5.05702942      18.31226289  T       0.15741847       0.00303425      -0.05851792
O        1.98768498       5.02458488      17.58996952  T       0.38829264       0.01407152       0.23890081
109
Lattice="12.51515363 0.0 0.0 0.0 12.51515363 0.0 0.0 0.0 25.30973" Properties=species:S:1:pos:R:3:move_mask:L:1:forces:R:3 energy=-453.20576392 stress="0.008232053638015489 -1.2669140053900355e-05 0.00017274675988081925 -1.2669140053900355e-05 0.008924118130534639 2.8083376960982803e-05 0.00017274675988081925 2.8083376960982803e-05 0.003379044220041586" free_energy=-453.20957562 pbc="T T T"
Cu       1.25151999       1.25151999      10.00000011  F       0.00163483      -0.01317926      -0.07560973
Cu       3.75454997       1.25151999      10.00000011  F      -0.00479145       0.00639416      -0.07133793
Cu       6.25757994       1.25151999      10.00000011  F       0.00884016       0.02927366      -0.05322361
Cu       8.76061004       1.25151999      10.00000011  F      -0.00303596       0.01492547      -0.05685739
Cu      11.26364002       1.25151999      10.00000011  F      -0.00533350      -0.01330294      -0.06898144
Cu       1.25151999       3.75454997      10.00000011  F      -0.00067855       0.00935277      -0.05986058
Cu       3.75454997       3.75454997      10.00000011  F       0.01041631      -0.01255516      -0.05056781
Cu       6.25757994       3.75454997      10.00000011  F       0.00185325      -0.02520822      -0.08497413
Cu       8.76061004       3.75454997      10.00000011  F      -0.00711636      -0.02375497      -0.07866865
Cu      11.26364002       3.75454997      10.00000011  F      -0.00440184       0.00540283      -0.04996995
Cu       1.25151999       6.25757994      10.00000011  F      -0.00096879      -0.00836566      -0.06213039
Cu       3.75454997       6.25757994      10.00000011  F       0.01213204       0.01334938      -0.05064391
Cu       6.25757994       6.25757994      10.00000011  F       0.00124331       0.02685209      -0.08845151
Cu       8.76061004       6.25757994      10.00000011  F      -0.00801538       0.02417243      -0.07880375
Cu      11.26364002       6.25757994      10.00000011  F      -0.00428427      -0.00414505      -0.05192758
Cu       1.25151999       8.76061004      10.00000011  F       0.00183772       0.01061119      -0.07486641
Cu       3.75454997       8.76061004      10.00000011  F      -0.00522187      -0.00833224      -0.07062755
Cu       6.25757994       8.76061004      10.00000011  F       0.00874668      -0.03193776      -0.05101451
Cu       8.76061004       8.76061004      10.00000011  F      -0.00247783      -0.01645893      -0.05741078
Cu      11.26364002       8.76061004      10.00000011  F      -0.00560406       0.01034703      -0.06884628
Cu       1.25151999      11.26364002      10.00000011  F       0.00128936       0.00233147      -0.01611574
Cu       3.75454997      11.26364002      10.00000011  F      -0.00981069       0.00180804      -0.06820174
Cu       6.25757994      11.26364002      10.00000011  F      -0.00679092       0.00172345      -0.07454062
Cu       8.76061004      11.26364002      10.00000011  F       0.00506074       0.00153990      -0.07385542
Cu      11.26364002      11.26364002      10.00000011  F       0.00471494       0.00228959      -0.06896722
Cu       0.00000000       0.00000000      11.76991004  F      -0.00250613       0.03996541       0.15555110
Cu       2.50302998       0.00000000      11.76991004  F       0.03719857       0.04124894       0.12074748
Cu       5.00605995       0.00000000      11.76991004  F       0.06336918       0.09758890       0.12139586
Cu       7.50909005       0.00000000      11.76991004  F       0.02366568       0.06984648       0.12871585
Cu      10.01212003       0.00000000      11.76991004  F      -0.01391407       0.07149480       0.11376176
Cu       0.00000000       2.50302998      11.76991004  F      -0.04002503       0.04823802       0.13774900
Cu       2.50302998       2.50302998      11.76991004  F       0.06652624       0.06386583       0.15535257
Cu       5.00605995       2.50302998      11.76991004  F      -0.04841214       0.01228295       0.17949456
Cu       7.50909005       2.50302998      11.76991004  F      -0.03459428      -0.02183357       0.11573800
Cu      10.01212003       2.50302998      11.76991004  F       0.06200121      -0.08726570       0.03973050
Cu       0.00000000       5.00605995      11.76991004  F      -0.06538136       0.00025669       0.08938094
Cu       2.50302998       5.00605995      11.76991004  F       0.06413961      -0.00056694       0.14165506
Cu       5.00605995       5.00605995      11.76991004  F      -0.08095864       0.00402611       0.30623644
Cu       7.50909005       5.00605995      11.76991004  F      -0.08740916       0.00628148       0.15341425
Cu      10.01212003       5.00605995      11.76991004  F       0.02573431       0.00129936       0.03858801
Cu       0.00000000       7.50909005      11.76991004  F      -0.03343059      -0.05537305       0.13857171
Cu       2.50302998       7.50909005      11.76991004  F       0.06883863      -0.06922797       0.15390320
Cu       5.00605995       7.50909005      11.76991004  F      -0.04130415      -0.01519483       0.18066433
Cu       7.50909005       7.50909005      11.76991004  F      -0.03312831       0.02119107       0.11815716
Cu      10.01212003       7.50909005      11.76991004  F       0.06462733       0.08724298       0.03627664
Cu       0.00000000      10.01212003      11.76991004  F      -0.00095001      -0.03760502       0.15016754
Cu       2.50302998      10.01212003      11.76991004  F       0.03971899      -0.04136174       0.11828458
Cu       5.00605995      10.01212003      11.76991004  F       0.06455444      -0.09311563       0.12011285
Cu       7.50909005      10.01212003      11.76991004  F       0.02382903      -0.06053194       0.12466155
Cu      10.01212003      10.01212003      11.76991004  F      -0.01046483      -0.06604270       0.11123023
Cu       1.27200717       1.25031566      13.58918229  T      -0.00306934      -0.01415123      -0.00066441
Cu       3.78992768       1.26769846      13.60722534  T      -0.00773605      -0.00522980      -0.01737340
Cu       6.29614063       1.28378869      13.61828367  T       0.00095943      -0.00630139      -0.01511210
Cu       8.78178381       1.27913543      13.61849298  T      -0.00089285      -0.01207470      -0.01128238
Cu      11.26917485       1.26200156      13.61644568  T       0.00579335      -0.00896553      -0.01843853
Cu       1.24340730       3.77042757      13.59764485  T      -0.00215427      -0.00478389      -0.00949891
Cu       3.74908435       3.78337600      13.64782164  T      -0.01431605       0.00443398      -0.00414425
Cu       6.24483038       3.78353469      13.60282094  T      -0.00595933       0.01103766      -0.02489973
Cu       8.73471882       3.76489086      13.55302709  T      -0.00264684       0.00184384      -0.04513943
Cu      11.21582087       3.75343700      13.60166353  T      -0.00065511      -0.00238909      -0.00853694
Cu       1.24605400       6.23903061      13.59788150  T      -0.00247865       0.00401371      -0.00988435
Cu       3.75295879       6.22759226      13.64656046  T      -0.01717060      -0.00432951      -0.00492702
Cu       6.24822111       6.23201299      13.60439242  T      -0.00501963      -0.01297157      -0.02634356
Cu       8.73680735       6.24949803      13.55348165  T      -0.00006612      -0.00402714      -0.04536750
Cu      11.21825156       6.25833210      13.59988122  T      -0.00184145       0.00327433      -0.00790887
Cu       1.27362226       8.76018666      13.58820331  T      -0.00306524       0.01382499      -0.00080408
Cu       3.79170708       8.74338243      13.60699148  T      -0.00807229       0.00833165      -0.01656945
Cu       6.29768513       8.73206723      13.61821331  T       0.00018573       0.00813536      -0.01469914
Cu       8.78397546       8.73662575      13.61637152  T      -0.00098349       0.01502533      -0.00865455
Cu      11.27161793       8.74973988      13.61587798  T       0.00396970       0.00896990      -0.01653114
Cu       1.25075407      11.26281565      13.60901525  T      -0.01594426       0.00247797      -0.01356426
Cu       3.74446676      11.26307358      13.58060457  T      -0.01432746       0.00222658      -0.00470823
Cu       6.25834575      11.26535284      13.57416020  T      -0.00097049       0.00266805      -0.01427590
Cu       8.77071403      11.26527162      13.58072074  T      -0.01276255       0.00175587      -0.01095565
Cu      11.27342462      11.26343727      13.59118682  T       0.01562780       0.00168425      -0.00252986
Cu       0.00344968       0.00655969      15.40025950  T      -0.00907100       0.01192077      -0.07833719
Cu       2.51054320       0.00152097      15.39386854  T       0.01340351       0.01270724      -0.07875279
Cu       5.00916809      12.48383346      15.36669551  T       0.00524805      -0.00017402      -0.04427063
Cu       7.51591919      12.49767972      15.36328882  T      -0.00406189      -0.00167664      -0.05336754
Cu      10.01957906      12.49983258      15.38297422  T      -0.01237275       0.00134302      -0.05431416
Cu       0.07079359       2.50846531      15.37100348  T       0.01191228       0.00397624      -0.04628485
Cu       2.54213182       2.49782993      15.37597001  T       0.00669592       0.01133249      -0.04366434
Cu       5.00598073       2.42898532      15.45439398  T      -0.04875914      -0.04923963      -0.07462473
Cu       7.61807288       2.51096158      15.45624589  T       0.03536637      -0.08087206      -0.11308856
Cu      10.12739898       2.47195723      15.48690458  T       0.03709782      -0.04491469      -0.06703726
Cu      12.32320709       5.00694440      15.35788595  T       0.01885561       0.00210595      -0.05550331
Cu       2.19808099       5.00312164      15.56662947  T       0.02056660       0.00080795      -0.10035502
Pd       4.74609368       5.00848263      15.80063994  T      -0.04448261       0.00530856      -0.07417488
Y        7.46480618       5.01558185      17.30282633  T      -0.05001219      -0.00219195       0.06418237
Cu       9.86450104       5.00519365      15.45275315  T       0.09250281       0.00104339      -0.12197015
Cu       0.07755991       7.50403230      15.37117862  T       0.01186898      -0.01244861      -0.04606419
Cu       2.54713938       7.50894738      15.37383032  T       0.00741561      -0.01377300      -0.04280666
Cu       5.00863657       7.58471775      15.45543269  T      -0.04955822       0.04327887      -0.07342953
Cu       7.62817862       7.51432201      15.45465619  T       0.04200043       0.06865302      -0.10764977
Cu      10.13616935       7.53933943      15.48537359  T       0.03437600       0.04810236      -0.06707376
Cu       0.00285033      10.00513181      15.40000969  T      -0.00894658      -0.00988202      -0.07788027
Cu       2.50989416      10.00501592      15.39358988  T       0.01319215      -0.00851033      -0.07996500
Cu       5.00852231      10.04623496      15.36625360  T       0.00806395      -0.00277880      -0.04376520
Cu       7.51587314      10.03917591      15.36257407  T      -0.00414669      -0.00593851      -0.05407547
Cu      10.01880900      10.02575554      15.38261381  T      -0.01202475      -0.00230333      -0.05479034
O        6.25502285       3.39690730      16.51773951  T      -0.04169119      -0.03904619       0.01947016
O        6.26984217       6.64324829      16.52395533  T      -0.04323966       0.03072337       0.01470556
O        9.01779207       6.43993574      16.58801476  T       0.06112192       0.09519603       0.09136264
O        9.00378937       3.57285922      16.58625674  T       0.06925111      -0.08827185       0.09489535
C        4.40478979       5.03202489      17.79982337  T      -0.27581501      -0.00487951       0.11735483
O        5.40524967       5.02476347      18.56369304  T      -0.26535879       0.00362667       0.02613889
H        2.93542090       5.12039351      19.41764586  T      -0.01383970      -0.02291659      -0.20981219
C        3.03432490       5.05705870      18.31169823  T       0.17972214       0.00702314       0.05221561
O        1.99143140       5.02472067      17.59227447  T       0.20735259       0.00834583       0.09245946
109
Lattice="12.51515363 0.0 0.0 0.0 12.51515363 0.0 0.0 0.0 25.30973" Properties=species:S:1:pos:R:3:move_mask:L:1:forces:R:3 energy=-453.2059541 stress="0.008124685906039656 -1.1669375122116374e-05 0.00013838142257330835 -1.1669375122116374e-05 0.008951875887964525 2.5883731831820777e-05 0.00013838142257330835 2.5883731831820777e-05 0.003370393688121404" free_energy=-453.20984739 pbc="T T T"
Cu       1.25151999       1.25151999      10.00000011  F       0.00202588      -0.01357845      -0.07511256
Cu       3.75454997       1.25151999      10.00000011  F      -0.00447231       0.00624779      -0.07077359
Cu       6.25757994       1.25151999      10.00000011  F       0.00833196       0.02918771      -0.05274343
Cu       8.76061004       1.25151999      10.00000011  F      -0.00340492       0.01457572      -0.05687431
Cu      11.26364002       1.25151999      10.00000011  F      -0.00525937      -0.01375682      -0.06917723
Cu       1.25151999       3.75454997      10.00000011  F      -0.00010424       0.00922770      -0.06014385
Cu       3.75454997       3.75454997      10.00000011  F       0.01078445      -0.01256474      -0.05050735
Cu       6.25757994       3.75454997      10.00000011  F       0.00146612      -0.02507099      -0.08494864
Cu       8.76061004       3.75454997      10.00000011  F      -0.00779234      -0.02363565      -0.07884616
Cu      11.26364002       3.75454997      10.00000011  F      -0.00438020       0.00532338      -0.05043904
Cu       1.25151999       6.25757994      10.00000011  F      -0.00056200      -0.00780042      -0.06226301
Cu       3.75454997       6.25757994      10.00000011  F       0.01240454       0.01356021      -0.05050749
Cu       6.25757994       6.25757994      10.00000011  F       0.00095401       0.02695070      -0.08830691
Cu       8.76061004       6.25757994      10.00000011  F      -0.00852943       0.02450456      -0.07875766
Cu      11.26364002       6.25757994      10.00000011  F      -0.00426260      -0.00361122      -0.05204922
Cu       1.25151999       8.76061004      10.00000011  F       0.00211154       0.01087667      -0.07405804
Cu       3.75454997       8.76061004      10.00000011  F      -0.00501083      -0.00824075      -0.07005031
Cu       6.25757994       8.76061004      10.00000011  F       0.00835499      -0.03191490      -0.05054366
Cu       8.76061004       8.76061004      10.00000011  F      -0.00275400      -0.01626695      -0.05697889
Cu      11.26364002       8.76061004      10.00000011  F      -0.00551768       0.01060547      -0.06807246
Cu       1.25151999      11.26364002      10.00000011  F       0.00146503       0.00204787      -0.01548040
Cu       3.75454997      11.26364002      10.00000011  F      -0.00970908       0.00167862      -0.06718350
Cu       6.25757994      11.26364002      10.00000011  F      -0.00725560       0.00156913      -0.07371927
Cu       8.76061004      11.26364002      10.00000011  F       0.00507145       0.00127501      -0.07335581
Cu      11.26364002      11.26364002      10.00000011  F       0.00476832       0.00204303      -0.06820923
Cu       0.00000000       0.00000000      11.76991004  F      -0.00246659       0.03954833       0.15383533
Cu       2.50302998       0.00000000      11.76991004  F       0.03680315       0.04085981       0.11950979
Cu       5.00605995       0.00000000      11.76991004  F       0.06290183       0.09725165       0.12047485
Cu       7.50909005       0.00000000      11.76991004  F       0.02363229       0.06947177       0.12722165
Cu      10.01212003       0.00000000      11.76991004  F      -0.01360160       0.07046989       0.11332474
Cu       0.00000000       2.50302998      11.76991004  F      -0.03956939       0.04741587       0.13727754
Cu       2.50302998       2.50302998      11.76991004  F       0.06630818       0.06326655       0.15481714
Cu       5.00605995       2.50302998      11.76991004  F      -0.04883699       0.01231284       0.17882542
Cu       7.50909005       2.50302998      11.76991004  F      -0.03538126      -0.02281432       0.11397933
Cu      10.01212003       2.50302998      11.76991004  F       0.06231327      -0.08866579       0.03834541
Cu       0.00000000       5.00605995      11.76991004  F      -0.06516338       0.00031634       0.08864203
Cu       2.50302998       5.00605995      11.76991004  F       0.06430090      -0.00046509       0.14028989
Cu       5.00605995       5.00605995      11.76991004  F      -0.08216613       0.00414969       0.30422111
Cu       7.50909005       5.00605995      11.76991004  F      -0.08902370       0.00636313       0.14959995
Cu      10.01212003       5.00605995      11.76991004  F       0.02683762       0.00127397       0.03598209
Cu       0.00000000       7.50909005      11.76991004  F      -0.03298539      -0.05443067       0.13810264
Cu       2.50302998       7.50909005      11.76991004  F       0.06866834      -0.06849399       0.15337142
Cu       5.00605995       7.50909005      11.76991004  F      -0.04181296      -0.01509422       0.18014121
Cu       7.50909005       7.50909005      11.76991004  F      -0.03392942       0.02227498       0.11665043
Cu      10.01212003       7.50909005      11.76991004  F       0.06494102       0.08880282       0.03491044
Cu       0.00000000      10.01212003      11.76991004  F      -0.00092468      -0.03729081       0.14859000
Cu       2.50302998      10.01212003      11.76991004  F       0.03938951      -0.04108011       0.11717189
Cu       5.00605995      10.01212003      11.76991004  F       0.06403060      -0.09284007       0.11932163