109
Lattice="12.51515363 0.0 0.0 0.0 12.51515363 0.0 0.0 0.0 25.30973" Properties=species:S:1:pos:R:3:move_mask:L:1:forces:R:3 energy=-451.69243296999997 stress="0.00816164144466837 1.2429303824229167e-05 0.0002700911337627228 1.2429303824229167e-05 0.007894765343463936 1.7057214320325202e-05 0.0002700911337627228 1.7057214320325202e-05 0.0018875049921087954" free_energy=-451.69578994 pbc="T T T"
Cu       1.25151999       1.25151999      10.00000011  F      -0.00118143      -0.01714049      -0.07474158
Cu       3.75454997       1.25151999      10.00000011  F       0.00918137       0.00056316      -0.07455486
Cu       6.25757994       1.25151999      10.00000011  F      -0.01603375       0.01057433      -0.06203376
Cu       8.76061004       1.25151999      10.00000011  F       0.01221288       0.01502325      -0.05174507
Cu      11.26364002       1.25151999      10.00000011  F      -0.00445542       0.00371287      -0.07387726
Cu       1.25151999       3.75454997      10.00000011  F      -0.00396271       0.00747807      -0.07013763
Cu       3.75454997       3.75454997      10.00000011  F       0.01391646      -0.01465688      -0.05901827
Cu       6.25757994       3.75454997      10.00000011  F      -0.01721579      -0.01567536      -0.08085551
Cu       8.76061004       3.75454997      10.00000011  F       0.01863083      -0.01816803      -0.08499616
Cu      11.26364002       3.75454997      10.00000011  F      -0.00940152      -0.00097454      -0.05975544
Cu       1.25151999       6.25757994      10.00000011  F      -0.00438547      -0.00601061      -0.07184908
Cu       3.75454997       6.25757994      10.00000011  F       0.01527020       0.01537963      -0.05945192
Cu       6.25757994       6.25757994      10.00000011  F      -0.01723212       0.01787487      -0.08394491
Cu       8.76061004       6.25757994      10.00000011  F       0.01732338       0.01894717      -0.08544024
Cu      11.26364002       6.25757994      10.00000011  F      -0.00907934       0.00245012      -0.06106210
Cu       1.25151999       8.76061004      10.00000011  F      -0.00111209       0.01386670      -0.07385353
Cu       3.75454997       8.76061004      10.00000011  F       0.00849761      -0.00327731      -0.07333307
Cu       6.25757994       8.76061004      10.00000011  F      -0.01580493      -0.01484808      -0.06057429
Cu       8.76061004       8.76061004      10.00000011  F       0.01255152      -0.01700491      -0.05094408
Cu      11.26364002       8.76061004      10.00000011  F      -0.00445583      -0.00672233      -0.07284700
Cu       1.25151999      11.26364002      10.00000011  F      -0.00950397       0.00174554      -0.02167542
Cu       3.75454997      11.26364002      10.00000011  F      -0.00133457       0.00185502      -0.07404690
Cu       6.25757994      11.26364002      10.00000011  F      -0.01040642       0.00194748      -0.07338058
Cu       8.76061004      11.26364002      10.00000011  F      -0.00061327       0.00120857      -0.06389332
Cu      11.26364002      11.26364002      10.00000011  F       0.02007023       0.00140864      -0.07423513
Cu       0.00000000       0.00000000      11.76991004  F      -0.00319185       0.04645963       0.04028829
Cu       2.50302998       0.00000000      11.76991004  F       0.04984442       0.02400946       0.06494423
Cu       5.00605995       0.00000000      11.76991004  F       0.02829122       0.08674204       0.06465665
Cu       7.50909005       0.00000000      11.76991004  F      -0.00853427       0.06655357       0.05417962
Cu      10.01212003       0.00000000      11.76991004  F      -0.04382233       0.07919490       0.05747466
Cu       0.00000000       2.50302998      11.76991004  F      -0.05070276       0.04375144       0.06090060
Cu       2.50302998       2.50302998      11.76991004  F       0.08212262       0.04329029       0.07664009
Cu       5.00605995       2.50302998      11.76991004  F      -0.02988951      -0.04292026       0.04738778
Cu       7.50909005       2.50302998      11.76991004  F      -0.02109041      -0.00063652       0.08938023
Cu      10.01212003       2.50302998      11.76991004  F       0.04742399      -0.02750841       0.05157870
Cu       0.00000000       5.00605995      11.76991004  F      -0.05863524       0.00114751       0.03095659
Cu       2.50302998       5.00605995      11.76991004  F       0.10010257       0.00182622       0.09798168
Cu       5.00605995       5.00605995      11.76991004  F      -0.05782539       0.00186044       0.09957864
Cu       7.50909005       5.00605995      11.76991004  F      -0.03220092       0.00085960       0.10288272
Cu      10.01212003       5.00605995      11.76991004  F       0.04589486      -0.00006905       0.07702251
Cu       0.00000000       7.50909005      11.76991004  F      -0.04897585      -0.04750994       0.06001954
Cu       2.50302998       7.50909005      11.76991004  F       0.08123631      -0.04566306       0.07642664
Cu       5.00605995       7.50909005      11.76991004  F      -0.02799803       0.03839628       0.04863394
Cu       7.50909005       7.50909005      11.76991004  F      -0.02341478      -0.00404937       0.08910352
Cu      10.01212003       7.50909005      11.76991004  F       0.04860188       0.02497606       0.05098610
Cu       0.00000000      10.01212003      11.76991004  F      -0.00169379      -0.04161111       0.03654079
Cu       2.50302998      10.01212003      11.76991004  F       0.05207132      -0.02181934       0.06457892
Cu       5.00605995      10.01212003      11.76991004  F       0.02667622      -0.08415996       0.06327304
Cu       7.50909005      10.01212003      11.76991004  F      -0.00825439      -0.06272051       0.05122682
Cu      10.01212003      10.01212003      11.76991004  F      -0.04462522      -0.07467344       0.05598083
Cu       1.26416393       1.24411878      13.57335282  T      -0.00059858      -0.00007226       0.00006250
Cu       3.77646213       1.26258339      13.60480320  T      -0.00031532      -0.00042637      -0.00045554
Cu       6.26430897       1.27670148      13.60922076  T       0.00012083      -0.00011762      -0.00013989
Cu       8.74833355       1.27732799      13.60151572  T       0.00022420       0.00058091       0.00059658
Cu      11.26290676       1.25805278      13.58585786  T      -0.00039115       0.00049233       0.00054054
Cu       1.25093466       3.75646892      13.57395039  T       0.00083449      -0.00048588      -0.00115492
Cu       3.77526630       3.74955317      13.60816003  T       0.00041844      -0.00050977      -0.00076943
Cu       6.26684729       3.76551988      13.56950144  T       0.00094567      -0.00044120      -0.00078684
Cu       8.75063371       3.77054934      13.56361212  T       0.00062985       0.00031011       0.00085474
Cu      11.24903033       3.76577544      13.60369438  T      -0.00044738       0.00016586       0.00034684
Cu       1.25069011       6.25625296      13.57407339  T       0.00070246       0.00053498      -0.00117235
Cu       3.77522538       6.26286196      13.60790946  T       0.00027130       0.00035442      -0.00071400
Cu       6.26704603       6.24536978      13.56980541  T       0.00078414       0.00050926      -0.00081486
Cu       8.75056325       6.24097997      13.56306897  T       0.00047369      -0.00020924       0.00087384
Cu      11.24918639       6.24598153      13.60300343  T      -0.00061493       0.00000456       0.00031977
Cu       1.26477292       8.76807058      13.57335738  T      -0.00074448       0.00010440       0.00004077
Cu       3.77647727       8.74964727      13.60475486  T      -0.00046599       0.00026871      -0.00050892
Cu       6.26454388       8.73549113      13.60858523  T       0.00000052       0.00016358      -0.00013965
Cu       8.74832304       8.73574782      13.60024315  T       0.00011503      -0.00052377       0.00064587
Cu      11.26390046       8.75505081      13.58453188  T      -0.00058228      -0.00041081       0.00059671
Cu       1.25165453      11.26404451      13.59352873  T      -0.00035420       0.00000600      -0.00000805
Cu       3.74584480      11.26395503      13.57581850  T      -0.00035898      -0.00007409      -0.00032375
Cu       6.25200882      11.26403450      13.56526940  T      -0.00011558       0.00003248      -0.00019948
Cu       8.75941297      11.26422736      13.56459794  T      -0.00003669       0.00003551       0.00004744
Cu      11.27595531      11.26437992      13.56817142  T      -0.00019847       0.00004415       0.00016786
Cu      12.51042365       0.00470532      15.36527082  T      -0.00038378       0.00057445       0.00027464
Cu       2.50719502       0.00662803      15.36819739  T      -0.00034981      -0.00025550       0.00017984
Cu       5.00719307      12.48641333      15.36181529  T      -0.00061190      -0.00032797      -0.00009500
Cu       7.50672406      12.49641419      15.34041591  T      -0.00045787       0.00017317       0.00016523
Cu      10.01311285      12.48745647      15.34240855  T      -0.00042714       0.00036618       0.00040543
Cu       0.04703658       2.49435848      15.34841277  T      -0.00023443       0.00146423       0.00064540
Cu       2.50936928       2.50628567      15.36080796  T      -0.00029538      -0.00038823      -0.00025675
Cu       4.98388598       2.42410666      15.49275998  T      -0.00051408      -0.00080369      -0.00079349
Cu       7.48763107       2.50686462      15.44454090  T       0.00064967       0.00059152       0.00074657
Cu      10.09823505       2.42898132      15.40016813  T       0.00027950       0.00113742       0.00242583
Cu       0.01407016       5.00708669      15.37604897  T       0.00208664       0.00019190      -0.00395061
Cu       2.45402877       5.00701586      15.35891985  T       0.00184555      -0.00012982      -0.00089780
Pd       4.98932694       5.00501932      15.53531678  T       0.00406495       0.00003753      -0.00604069
Y        7.61819378       5.00789642      17.31191480  T       0.00009201       0.00014890      -0.00832071
Cu      10.04712804       5.00537149      15.45740280  T       0.00254372       0.00015904       0.00515196
Cu       0.04650644       7.51935085      15.34787064  T      -0.00063913      -0.00115528       0.00048608
Cu       2.50892173       7.50655210      15.36103752  T      -0.00079492       0.00018748      -0.00028751
Cu       4.98376683       7.58587039      15.49097033  T      -0.00116691       0.00088898      -0.00084743
Cu       7.48798099       7.50550446      15.44320277  T       0.00015662      -0.00042541       0.00078122
Cu      10.09783656       7.58380677      15.39495256  T      -0.00013931      -0.00106299       0.00271585
Cu      12.51153925      10.00961562      15.36488283  T      -0.00032759      -0.00019596       0.00025425
Cu       2.50844315      10.00711847      15.36805312  T      -0.00028850      -0.00001188       0.00016132
Cu       5.00849515      10.03836756      15.36115850  T      -0.00053102       0.00023064      -0.00015791
Cu       7.50775731      10.03085133      15.33987023  T      -0.00044592       0.00005725       0.00014718
Cu      10.01417539      10.04011154      15.34139287  T      -0.00040546      -0.00030781       0.00044175
O        6.11881843       3.44719644      16.67555529  T       0.00042888       0.00044707       0.00158206
O        6.11920402       6.56478592      16.67422932  T       0.00006085      -0.00045461       0.00137386
O        8.91583787       6.47603846      16.38053901  T      -0.00226170      -0.00351192       0.00193462
O        8.91418625       3.54105221      16.37968582  T      -0.00157120       0.00312448       0.00223990
C       10.04658388       5.05821660      18.46305422  T      -0.00407313      -0.00033244       0.00644537
O       11.05655578       5.02508937      17.74446163  T      -0.01401276       0.00116246       0.02565557
H       11.50608170       5.26601196      20.19532528  T      -0.02420599      -0.00405653       0.02467167
C       10.40769737       5.20010678      19.96954351  T      -0.02621059      -0.00169616       0.01738377
O        9.55358883       5.24603502      20.83444380  T      -0.03504298      -0.00144608       0.00709680
109
Lattice="12.51515363 0.0 0.0 0.0 12.51515363 0.0 0.0 0.0 25.30973" Properties=species:S:1:pos:R:3:move_mask:L:1:forces:R:3 energy=-451.69459323 stress="0.008117166735029668 1.2422107364207022e-05 0.00027017060689842265 1.2422107364207022e-05 0.007853833333129612 1.6913759474575903e-05 0.00027017060689842265 1.6913759474575903e-05 0.001843266742043325" free_energy=-451.69795756 pbc="T T T"
Cu       1.25151999       1.25151999      10.00000011  F      -0.00112315      -0.01718374      -0.07477044
Cu       3.75454997       1.25151999      10.00000011  F       0.00924995       0.00058810      -0.07444801
Cu       6.25757994       1.25151999      10.00000011  F      -0.01604539       0.01061662      -0.06190067
Cu       8.76061004       1.25151999      10.00000011  F       0.01205354       0.01506760      -0.05168874
Cu      11.26364002       1.25151999      10.00000011  F      -0.00454634       0.00370311      -0.07388724
Cu       1.25151999       3.75454997      10.00000011  F      -0.00390353       0.00752437      -0.07020319
Cu       3.75454997       3.75454997      10.00000011  F       0.01397825      -0.01462630      -0.05895184
Cu       6.25757994       3.75454997      10.00000011  F      -0.01724828      -0.01566514      -0.08066155
Cu       8.76061004       3.75454997      10.00000011  F       0.01849448      -0.01816346      -0.08490714
Cu      11.26364002       3.75454997      10.00000011  F      -0.00948959      -0.00093045      -0.05984072
Cu       1.25151999       6.25757994      10.00000011  F      -0.00432368      -0.00603827      -0.07190982
Cu       3.75454997       6.25757994      10.00000011  F       0.01533474       0.01535665      -0.05939305
Cu       6.25757994       6.25757994      10.00000011  F      -0.01726044       0.01786112      -0.08382155
Cu       8.76061004       6.25757994      10.00000011  F       0.01718030       0.01893680      -0.08542456
Cu      11.26364002       6.25757994      10.00000011  F      -0.00916799       0.00241086      -0.06115525
Cu       1.25151999       8.76061004      10.00000011  F      -0.00105163       0.01393208      -0.07386688
Cu       3.75454997       8.76061004      10.00000011  F       0.00854754      -0.00326968      -0.07321527
Cu       6.25757994       8.76061004      10.00000011  F      -0.01583310      -0.01485985      -0.06046343
Cu       8.76061004       8.76061004      10.00000011  F       0.01240774      -0.01702029      -0.05091814
Cu      11.26364002       8.76061004      10.00000011  F      -0.00452630      -0.00668248      -0.07287720
Cu       1.25151999      11.26364002      10.00000011  F      -0.00948563       0.00175385      -0.02201908
Cu       3.75454997      11.26364002      10.00000011  F      -0.00133746       0.00186912      -0.07407271
Cu       6.25757994      11.26364002      10.00000011  F      -0.01044304       0.00197106      -0.07334548
Cu       8.76061004      11.26364002      10.00000011  F      -0.00071334       0.00123327      -0.06397643
Cu      11.26364002      11.26364002      10.00000011  F       0.02004607       0.00142308      -0.07457442
Cu       0.00000000       0.00000000      11.76991004  F      -0.00316650       0.04644509       0.04037089
Cu       2.50302998       0.00000000      11.76991004  F       0.04993735       0.02400254       0.06504152
Cu       5.00605995       0.00000000      11.76991004  F       0.02830648       0.08673816       0.06476969
Cu       7.50909005       0.00000000      11.76991004  F      -0.00867271       0.06656640       0.05428726
Cu      10.01212003       0.00000000      11.76991004  F      -0.04396512       0.07918264       0.05757089
Cu       0.00000000       2.50302998      11.76991004  F      -0.05066666       0.04376212       0.06099504
Cu       2.50302998       2.50302998      11.76991004  F       0.08226014       0.04327907       0.07671966
Cu       5.00605995       2.50302998      11.76991004  F      -0.02988165      -0.04292662       0.04750349
Cu       7.50909005       2.50302998      11.76991004  F      -0.02124845      -0.00065093       0.08943936
Cu      10.01212003       2.50302998      11.76991004  F       0.04728114      -0.02750989       0.05163950
Cu       0.00000000       5.00605995      11.76991004  F      -0.05859227       0.00117259       0.03097132
Cu       2.50302998       5.00605995      11.76991004  F       0.10026463       0.00185023       0.09803537
Cu       5.00605995       5.00605995      11.76991004  F      -0.05781877       0.00188472       0.09966677
Cu       7.50909005       5.00605995      11.76991004  F      -0.03235685       0.00088737       0.10291032
Cu      10.01212003       5.00605995      11.76991004  F       0.04575060      -0.00004090       0.07700792
Cu       0.00000000       7.50909005      11.76991004  F      -0.04895271      -0.04749160       0.06011180
Cu       2.50302998       7.50909005      11.76991004  F       0.08138078      -0.04562716       0.07650234
Cu       5.00605995       7.50909005      11.76991004  F      -0.02798709       0.03843382       0.04875024
Cu       7.50909005       7.50909005      11.76991004  F      -0.02357424      -0.00399350       0.08916731
Cu      10.01212003       7.50909005      11.76991004  F       0.04844867       0.02501219       0.05104491
Cu       0.00000000      10.01212003      11.76991004  F      -0.00167250      -0.04159785       0.03662797
Cu       2.50302998      10.01212003      11.76991004  F       0.05216440      -0.02181374       0.06467369
Cu       5.00605995      10.01212003      11.76991004  F       0.02668983      -0.08416456       0.06338125
Cu       7.50909005      10.01212003      11.76991004  F      -0.00839388      -0.06274966       0.05133358
Cu      10.01212003      10.01212003      11.76991004  F      -0.04477071      -0.07466684       0.05607893
Cu       1.26415817       1.24411803      13.57335333  T      -0.00002811      -0.00000755       0.00006530
Cu       3.77645912       1.26257926      13.60479890  T       0.00002271      -0.00010037      -0.00007994
Cu       6.26431009       1.27670036      13.60921950  T      -0.00008219      -0.00001095       0.00000246
Cu       8.74833568       1.27733362      13.60152154  T      -0.00013631       0.00016087       0.00017373
Cu      11.26290288       1.25805753      13.58586317  T      -0.00016566       0.00015078       0.00013951
Cu       1.25094267       3.75646429      13.57393925  T       0.00043949      -0.00015349      -0.00031609
Cu       3.77527043       3.74954829      13.60815269  T       0.00020063      -0.00016289      -0.00019625
Cu       6.26685643       3.76551562      13.56949385  T       0.00014949      -0.00019026      -0.00028059
Cu       8.75063985       3.77055234      13.56362047  T      -0.00007046       0.00002501       0.00013666
Cu      11.24902595       3.76577694      13.60369767  T      -0.00016252       0.00002450       0.00006970
Cu       1.25069700       6.25625809      13.57406200  T       0.00039790       0.00021179      -0.00032229
Cu       3.77522801       6.26286534      13.60790263  T       0.00014925       0.00015134      -0.00018798
Cu       6.26705366       6.24537467      13.56979757  T       0.00010897       0.00023849      -0.00028613
Cu       8.75056788       6.24097797      13.56307733  T      -0.00011575       0.00003027       0.00015278
Cu      11.24918039       6.24598153      13.60300646  T      -0.00021250       0.00006141       0.00005558
Cu       1.26476566       8.76807158      13.57335763  T      -0.00006185       0.00005126       0.00004869
Cu       3.77647276       8.74964990      13.60475005  T      -0.00006084       0.00007112      -0.00011184
Cu       6.26454388       8.73549276      13.60858371  T      -0.00012755       0.00005104      -0.00000291
Cu       8.74832417       8.73574281      13.60024947  T      -0.00015850      -0.00011939       0.00018907
Cu      11.26389483       8.75504681      13.58453770  T      -0.00022206      -0.00008332       0.00018661
Cu       1.25165115      11.26404463      13.59352873  T      -0.00000808      -0.00000319       0.00004330
Cu       3.74584130      11.26395427      13.57581546  T       0.00000360      -0.00002331      -0.00003340
Cu       6.25200770      11.26403475      13.56526763  T      -0.00013771       0.00000959       0.00001153
Cu       8.75941259      11.26422773      13.56459844  T      -0.00020424       0.00001175       0.00006904
Cu      11.27595343      11.26438029      13.56817293  T      -0.00012747       0.00000956       0.00007239
Cu      12.51041990       0.00471095      15.36527336  T      -0.00007336       0.00013691       0.00011828
Cu       2.50719164       0.00662552      15.36819916  T      -0.00001455      -0.00005675       0.00002166
Cu       5.00718719      12.48641020      15.36181427  T      -0.00017008      -0.00005949      -0.00009809
Cu       7.50671956      12.49641582      15.34041743  T      -0.00027564       0.00004539      -0.00000528
Cu      10.01310872      12.48745997      15.34241234  T      -0.00022413       0.00005254       0.00012683
Cu       0.04703433       2.49437262      15.34841885  T       0.00003073       0.00034728       0.00018667
Cu       2.50936640       2.50628191      15.36080568  T       0.00005094      -0.00010524      -0.00014347
Cu       4.98388097       2.42409890      15.49275239  T       0.00013980       0.00001620      -0.00005386
Cu       7.48763732       2.50687025      15.44454824  T      -0.00006054       0.00024835       0.00038903
Cu      10.09823767       2.42899220      15.40019142  T      -0.00023062       0.00049440       0.00101763
Cu       0.01409031       5.00708845      15.37601101  T       0.00087542       0.00007145      -0.00130534
Cu       2.45404654       5.00701461      15.35891125  T       0.00084805      -0.00002625      -0.00037058
Pd       4.98936611       5.00501969      15.53525856  T      -0.00038973       0.00000613       0.00071652
Y        7.61819466       5.00789793      17.31183431  T      -0.00307336      -0.00002583      -0.00239833
Cu      10.04715257       5.00537299      15.45745240  T       0.00107427       0.00006187       0.00168885
Cu       0.04650030       7.51933971      15.34787545  T      -0.00009207      -0.00023491       0.00013864
Cu       2.50891410       7.50655398      15.36103474  T      -0.00009872       0.00006927      -0.00015599
Cu       4.98375557       7.58587890      15.49096198  T      -0.00007361       0.00001931      -0.00007536
Cu       7.48798249       7.50550033      15.44321011  T      -0.00026269      -0.00016894       0.00041589
Cu      10.09783519       7.58379651      15.39497863  T      -0.00040429      -0.00047143       0.00112610
Cu      12.51153612      10.00961374      15.36488510  T      -0.00005035      -0.00001727       0.00011723
Cu       2.50844028      10.00711834      15.36805489  T       0.00000000      -0.00000040       0.00001613
Cu       5.00849002      10.03836981      15.36115698  T      -0.00015325       0.00005566      -0.00012110
Cu       7.50775306      10.03085183      15.33987150  T      -0.00027027       0.00003498      -0.00001235
Cu      10.01417151      10.04010854      15.34139717  T      -0.00021339      -0.00002277       0.00013159
O        6.11882256       3.44720070      16.67557048  T      -0.00144779      -0.00144444      -0.00038981
O        6.11920465       6.56478154      16.67424248  T      -0.00166729       0.00143713      -0.00051846
O        8.91581610       6.47600454      16.38055774  T      -0.00014438      -0.00052744       0.00046177
O        8.91417110       3.54108237      16.37970758  T       0.00023832       0.00039865       0.00072688
C       10.04654458       5.05821335      18.46311648  T      -0.00998296      -0.00008331       0.01072324
O       11.05642061       5.02510063      17.74470916  T      -0.00453010       0.00065062       0.01702385
H       11.50584817       5.26597278      20.19556345  T      -0.02478547      -0.00406957       0.02455955
C       10.40744457       5.20009039      19.96971131  T      -0.02497904      -0.00168744       0.01816962
O        9.55325067       5.24602100      20.83451239  T      -0.03053771      -0.00134037       0.00586485
109
Lattice="12.51515363 0.0 0.0 0.0 12.51515363 0.0 0.0 0.0 25.30973" Properties=species:S:1:pos:R:3:move_mask:L:1:forces:R:3 energy=-451.69241658 stress="0.008118983769407903 1.2509856741007814e-05 0.00027201235141128833 1.2509856741007814e-05 0.00785455051997723 1.697480143382704e-05 0.00027201235141128833 1.697480143382704e-05 0.0018490597800139865" free_energy=-451.69577464 pbc="T T T"
Cu       1.25151999       1.25151999      10.00000011  F      -0.00129523      -0.01714390      -0.07462811
Cu       3.75454997       1.25151999      10.00000011  F       0.00914312       0.00059314      -0.07445015
Cu       6.25757994       1.25151999      10.00000011  F      -0.01598860       0.01061029      -0.06189483
Cu       8.76061004       1.25151999      10.00000011  F       0.01217056       0.01506765      -0.05154963
Cu      11.26364002       1.25151999      10.00000011  F      -0.00455966       0.00372042      -0.07367394
Cu       1.25151999       3.75454997      10.00000011  F      -0.00408413       0.00753739      -0.07003842
Cu       3.75454997       3.75454997      10.00000011  F       0.01386864      -0.01460771      -0.05894748
Cu       6.25757994       3.75454997      10.00000011  F      -0.01717579      -0.01563977      -0.08072568
Cu       8.76061004       3.75454997      10.00000011  F       0.01862189      -0.01812052      -0.08482209
Cu      11.26364002       3.75454997      10.00000011  F      -0.00951781      -0.00090134      -0.05958765
Cu       1.25151999       6.25757994      10.00000011  F      -0.00450750      -0.00604810      -0.07175197
Cu       3.75454997       6.25757994      10.00000011  F       0.01522239       0.01535051      -0.05938698
Cu       6.25757994       6.25757994      10.00000011  F      -0.01719226       0.01785655      -0.08382795
Cu       8.76061004       6.25757994      10.00000011  F       0.01731696       0.01891896      -0.08527673
Cu      11.26364002       6.25757994      10.00000011  F      -0.00919373       0.00239994      -0.06089859
Cu       1.25151999       8.76061004      10.00000011  F      -0.00122525       0.01388956      -0.07373357
Cu       3.75454997       8.76061004      10.00000011  F       0.00845681      -0.00328301      -0.07322752
Cu       6.25757994       8.76061004      10.00000011  F      -0.01576105      -0.01486181      -0.06043846
Cu       8.76061004       8.76061004      10.00000011  F       0.01251611      -0.01702676      -0.05075446
Cu      11.26364002       8.76061004      10.00000011  F      -0.00455758      -0.00671093      -0.07266026
Cu       1.25151999      11.26364002      10.00000011  F      -0.00964411       0.00175614      -0.02185926
Cu       3.75454997      11.26364002      10.00000011  F      -0.00141377       0.00186550      -0.07402798
Cu       6.25757994      11.26364002      10.00000011  F      -0.01037535       0.00196093      -0.07330989
Cu       8.76061004      11.26364002      10.00000011  F      -0.00061492       0.00122049      -0.06380743
Cu      11.26364002      11.26364002      10.00000011  F       0.02000286       0.00141743      -0.07432214
Cu       0.00000000       0.00000000      11.76991004  F      -0.00335854       0.04648167       0.04031112
Cu       2.50302998       0.00000000      11.76991004  F       0.04968333       0.02402163       0.06491485
Cu       5.00605995       0.00000000      11.76991004  F       0.02831047       0.08675008       0.06460539
Cu       7.50909005       0.00000000      11.76991004  F      -0.00845495       0.06658249       0.05416292
Cu      10.01212003       0.00000000      11.76991004  F      -0.04387513       0.07922627       0.05750995
Cu       0.00000000       2.50302998      11.76991004  F      -0.05090334       0.04380605       0.06093800
Cu       2.50302998       2.50302998      11.76991004  F       0.08199012       0.04329923       0.07657014
Cu       5.00605995       2.50302998      11.76991004  F      -0.02986429      -0.04292647       0.04726543
Cu       7.50909005       2.50302998      11.76991004  F      -0.02098221      -0.00061866       0.08931249
Cu      10.01212003       2.50302998      11.76991004  F       0.04738120      -0.02743924       0.05161692
Cu       0.00000000       5.00605995      11.76991004  F      -0.05883480       0.00115977       0.03097087
Cu       2.50302998       5.00605995      11.76991004  F       0.09995506       0.00183535       0.09785308
Cu       5.00605995       5.00605995      11.76991004  F      -0.05780007       0.00186856       0.09941070
Cu       7.50909005       5.00605995      11.76991004  F      -0.03204783       0.00087145       0.10279563
Cu      10.01212003       5.00605995      11.76991004  F       0.04585398      -0.00005316       0.07700618
Cu       0.00000000       7.50909005      11.76991004  F      -0.04918513      -0.04753837       0.06005397
Cu       2.50302998       7.50909005      11.76991004  F       0.08110220      -0.04565359       0.07635186
Cu       5.00605995       7.50909005      11.76991004  F      -0.02797657       0.03842138       0.04851006
Cu       7.50909005       7.50909005      11.76991004  F      -0.02330536      -0.00404206       0.08903585
Cu      10.01212003       7.50909005      11.76991004  F       0.04855422       0.02493327       0.05102067
Cu       0.00000000      10.01212003      11.76991004  F      -0.00186730      -0.04160988       0.03656454
Cu       2.50302998      10.01212003      11.76991004  F       0.05190755      -0.02180716       0.06454501
Cu       5.00605995      10.01212003      11.76991004  F       0.02669433      -0.08414494       0.06321710