109
Lattice="12.51515363 0.0 0.0 0.0 12.51515363 0.0 0.0 0.0 25.30973" Properties=species:S:1:pos:R:3:move_mask:L:1:forces:R:3 energy=-453.01505669000005 stress="0.00870395286571891 -4.785619076236117e-05 -7.2092551158514575e-06 -4.785619076236117e-05 0.008508814760505586 -0.0002350532488808615 -7.2092551158514575e-06 -0.0002350532488808615 0.0036150387821212676" free_energy=-453.0156367 pbc="T T T"
Cu       1.25151999       1.25151999      10.00000011  F       0.00089488      -0.02961144      -0.05535857
Cu       3.75454997       1.25151999      10.00000011  F      -0.00276233      -0.00611087      -0.05465072
Cu       6.25757994       1.25151999      10.00000011  F      -0.00836844       0.01212743      -0.04924989
Cu       8.76061004       1.25151999      10.00000011  F       0.00754009       0.01705363      -0.04782784
Cu      11.26364002       1.25151999      10.00000011  F      -0.00045833      -0.00143325      -0.07105020
Cu       1.25151999       3.75454997      10.00000011  F      -0.00378102       0.01899427      -0.06333969
Cu       3.75454997       3.75454997      10.00000011  F       0.01239201       0.00106021      -0.04758145
Cu       6.25757994       3.75454997      10.00000011  F      -0.02212802      -0.01167001      -0.07663266
Cu       8.76061004       3.75454997      10.00000011  F       0.02145471      -0.02650630      -0.07273040
Cu      11.26364002       3.75454997      10.00000011  F      -0.00479535       0.00682593      -0.05981532
Cu       1.25151999       6.25757994      10.00000011  F       0.00078789      -0.02176878      -0.07099287
Cu       3.75454997       6.25757994      10.00000011  F       0.01077262       0.00018684      -0.06144462
Cu       6.25757994       6.25757994      10.00000011  F      -0.01370883       0.02031219      -0.08592507
Cu       8.76061004       6.25757994      10.00000011  F       0.01454561       0.03417878      -0.07771759
Cu      11.26364002       6.25757994      10.00000011  F      -0.00969480       0.00206845      -0.05977857
Cu       1.25151999       8.76061004      10.00000011  F       0.00626493       0.01015771      -0.06488555
Cu       3.75454997       8.76061004      10.00000011  F      -0.00211253      -0.00572755      -0.06467404
Cu       6.25757994       8.76061004      10.00000011  F       0.00680083      -0.01715012      -0.04893247
Cu       8.76061004       8.76061004      10.00000011  F       0.00912621      -0.02066723      -0.05252416
Cu      11.26364002       8.76061004      10.00000011  F      -0.02111856      -0.01144177      -0.05851635
Cu       1.25151999      11.26364002      10.00000011  F       0.00543898       0.02245338      -0.02321589
Cu       3.75454997      11.26364002      10.00000011  F      -0.01726995       0.01159328      -0.07146138
Cu       6.25757994      11.26364002      10.00000011  F       0.00466672      -0.00254280      -0.07660280
Cu       8.76061004      11.26364002      10.00000011  F      -0.00464432      -0.00572537      -0.05900875
Cu      11.26364002      11.26364002      10.00000011  F       0.01054034       0.00315379      -0.06454631
Cu       0.00000000       0.00000000      11.76991004  F       0.00631419       0.03700475       0.12541845
Cu       2.50302998       0.00000000      11.76991004  F       0.03617954       0.00847274       0.10204098
Cu       5.00605995       0.00000000      11.76991004  F       0.00755517       0.09242164       0.13359633
Cu       7.50909005       0.00000000      11.76991004  F       0.01248354       0.09073281       0.12459347
Cu      10.01212003       0.00000000      11.76991004  F      -0.03871934       0.09701882       0.14265432
Cu       0.00000000       2.50302998      11.76991004  F      -0.05788667       0.00520068       0.13784168
Cu       2.50302998       2.50302998      11.76991004  F       0.08196739      -0.01914060       0.16862187
Cu       5.00605995       2.50302998      11.76991004  F      -0.04241024      -0.05264467       0.14377077
Cu       7.50909005       2.50302998      11.76991004  F      -0.03440401      -0.00344136       0.13359153
Cu      10.01212003       2.50302998      11.76991004  F       0.05082976      -0.03878762       0.08160300
Cu       0.00000000       5.00605995      11.76991004  F      -0.07900832      -0.03131255       0.09158744
Cu       2.50302998       5.00605995      11.76991004  F       0.08059356      -0.01787390       0.09581810
Cu       5.00605995       5.00605995      11.76991004  F      -0.05146244      -0.02492047       0.16078717
Cu       7.50909005       5.00605995      11.76991004  F      -0.05237343       0.00884798       0.17662228
Cu      10.01212003       5.00605995      11.76991004  F       0.02264458       0.00308098       0.10705945
Cu       0.00000000       7.50909005      11.76991004  F      -0.08631053      -0.03860939       0.13340496
Cu       2.50302998       7.50909005      11.76991004  F       0.07735347      -0.06292500       0.10853188
Cu       5.00605995       7.50909005      11.76991004  F       0.00538823       0.01663245       0.11195923
Cu       7.50909005       7.50909005      11.76991004  F      -0.02919120       0.01740290       0.14066498
Cu      10.01212003       7.50909005      11.76991004  F       0.04365606       0.04924475       0.08782172
Cu       0.00000000      10.01212003      11.76991004  F       0.00736974      -0.04041034       0.15785673
Cu       2.50302998      10.01212003      11.76991004  F       0.03136520      -0.02127033       0.12219572
Cu       5.00605995      10.01212003      11.76991004  F       0.01742430      -0.07234723       0.13382720
Cu       7.50909005      10.01212003      11.76991004  F       0.03284608      -0.08663581       0.11351932
Cu      10.01212003      10.01212003      11.76991004  F      -0.05562034      -0.10020772       0.13000884
Cu       1.27684641       1.22563603      13.60274603  T       0.00932132      -0.01017287      -0.00075407
Cu       3.76247844       1.24812338      13.63497999  T      -0.00533438      -0.00210498      -0.01250940
Cu       6.27738004       1.28770869      13.61984806  T      -0.00069010      -0.00170191      -0.00192241
Cu       8.75736975       1.28770606      13.62166024  T      -0.00489525      -0.00603139       0.00152046
Cu      11.26126377       1.27169630      13.60911497  T       0.01263119      -0.00616592      -0.00815582
Cu       1.25357774       3.73189291      13.58374728  T      -0.00311383       0.00393075      -0.00429723
Cu       3.75151792       3.73140131      13.62643770  T      -0.01590520      -0.01424440      -0.01938464
Cu       6.26272455       3.77379577      13.59240852  T       0.00792727       0.00085845      -0.04407466
Cu       8.74409367       3.76853828      13.56823798  T      -0.01162892      -0.00036773      -0.02838571
Cu      11.23257002       3.76599846      13.61713258  T       0.01212109      -0.00868470       0.00819262
Cu       1.24170761       6.23993107      13.57749299  T      -0.00480439       0.00430526      -0.01155050
Cu       3.76571449       6.24127871      13.60866597  T      -0.03049386       0.01487464      -0.01634087
Cu       6.26585496       6.24867892      13.59254924  T       0.00937910      -0.00597300      -0.04668152
Cu       8.74112858       6.24975735      13.57309416  T      -0.00700019      -0.00586630      -0.04830573
Cu      11.22609606       6.25034506      13.61830847  T       0.00505541       0.00000289      -0.00348300
Cu       1.25948651       8.75267969      13.57900854  T      -0.01058216       0.01954950      -0.00310316
Cu       3.78795079       8.73904581      13.60293458  T      -0.01057039      -0.00090627      -0.00029069
Cu       6.28573316       8.73318308      13.62520993  T       0.00031456      -0.00297183       0.00282749
Cu       8.76007152       8.73168490      13.62687658  T      -0.00304383       0.01498427       0.00155665
Cu      11.25498103       8.74319258      13.61662538  T       0.01904608       0.01324408      -0.02460329
Cu       1.25717809      11.26181468      13.62028263  T      -0.01363752      -0.00118524      -0.02093596
Cu       3.73050798      11.26716078      13.59753121  T      -0.01314670       0.01079727       0.00805980
Cu       6.25618601      11.25941465      13.56666296  T      -0.00458807       0.01051349       0.00590390
Cu       8.76047851      11.26526173      13.58090221  T      -0.00195929      -0.00614834      -0.01180494
Cu      11.26336419      11.25667459      13.57581470  T       0.02959873      -0.00445795      -0.00098050
Cu      12.45670186      12.49729125      15.36308482  T      -0.00661249       0.00550313      -0.07487564
Cu       2.49497022      12.37756128      15.49187769  T       0.01820591      -0.00473458      -0.05688889
Cu       5.04039565      12.48189636      15.35200017  T       0.00226349      -0.01754376      -0.05432403
Cu       7.51190283      12.50363155      15.36591901  T      -0.00489646       0.00763431      -0.06382087
Cu       9.99573806      12.50020503      15.37300927  T      -0.01484284       0.00140702      -0.05396502
Cu       0.04961845       2.49971396      15.37724081  T       0.01905284       0.00706701      -0.03567718
Cu       2.52696796       2.51995872      15.46651759  T      -0.00936143       0.02320289      -0.08878020
Cu       5.01632150       2.42838722      15.48204663  T      -0.03852222      -0.05513396      -0.09685527
Cu       7.54678357       2.52480747      15.49871309  T       0.01831877      -0.09681078      -0.13889412
Cu      10.09713772       2.45932318      15.47095970  T       0.04110729      -0.06183368      -0.09596446
Cu      12.47844406       5.00493371      15.36394206  T      -0.00044891      -0.00574537      -0.06305798
Cu       2.39364816       5.00827739      15.40585447  T      -0.02083180       0.00339218      -0.04578155
Pd       4.91869492       5.00627721      15.54917512  T       0.02200093      -0.00679660      -0.07180404
Y        7.48436486       5.01295930      17.25696839  T      -0.02818350      -0.02265656       0.07898232
Cu       9.97032254       5.00974554      15.46828067  T       0.08818992       0.00701717      -0.13373221
Cu       0.05546866       7.50735695      15.37706567  T      -0.00314349      -0.01099237      -0.05563680
Cu       2.51982644       7.46974491      15.37092704  T       0.01414731       0.00083210      -0.06415351
Cu       4.99355744       7.59387934      15.48621337  T      -0.05502847       0.06592623      -0.09007421
Cu       7.54416452       7.50347413      15.49943948  T       0.02321697       0.06711785      -0.13362955
Cu      10.09219686       7.55692197      15.47375339  T       0.04769979       0.06121572      -0.08614427
Cu       0.00019862       9.99875935      15.39291867  T      -0.00836098       0.00021984      -0.08781262
Cu       2.50695535       9.91886799      15.38798656  T       0.01466750       0.00298954      -0.06764079
Cu       5.00223144      10.04453991      15.37071925  T       0.00522023       0.01189895      -0.05355250
Cu       7.50759487      10.03727661      15.37179871  T      -0.00463608      -0.00514564      -0.06429096
Cu      10.01880149      10.03697049      15.38102208  T      -0.01109772      -0.00398215      -0.06380672
O        6.14551826       3.42335971      16.68372730  T      -0.09872725       0.04850352       0.12335605
O        6.14112656       6.58986741      16.66016318  T      -0.09908229      -0.02454655       0.11828430
O        8.97462080       6.43141643      16.55064191  T       0.07229633       0.09557351       0.09827122
O        8.97321059       3.59068844      16.53683671  T       0.06847059      -0.06209566       0.12719857
C        2.40648207       1.79141521      17.23681324  T      -0.03480723       0.04556084       0.46020847
O        2.39736416       0.54163783      17.44050189  T      -0.00144132       0.29212212      -0.02750339
H        2.44967199       1.98364422      19.46771686  T      -0.01240320       0.21794632      -0.26335555
C        2.36782589       2.63154296      18.54151084  T       0.03623489      -0.59676058      -0.13783817
O        2.25176299       3.83937005      18.59128925  T       0.01036665       0.17822635      -0.08387152
109
Lattice="12.51515363 0.0 0.0 0.0 12.51515363 0.0 0.0 0.0 25.30973" Properties=species:S:1:pos:R:3:move_mask:L:1:forces:R:3 energy=-453.02192276 stress="0.00870355900776854 -6.054843688304555e-05 -1.1820931446711072e-05 -6.054843688304555e-05 0.008559686480228536 -0.00022731511948922831 -1.1820931446711072e-05 -0.00022731511948922831 0.0035694875245055133" free_energy=-453.0223883 pbc="T T T"
Cu       1.25151999       1.25151999      10.00000011  F       0.00082240      -0.02963669      -0.05515435
Cu       3.75454997       1.25151999      10.00000011  F      -0.00272936      -0.00613745      -0.05490082
Cu       6.25757994       1.25151999      10.00000011  F      -0.00816480       0.01193227      -0.04958717
Cu       8.76061004       1.25151999      10.00000011  F       0.00761813       0.01656901      -0.04799586
Cu      11.26364002       1.25151999      10.00000011  F      -0.00057185      -0.00155769      -0.07089130
Cu       1.25151999       3.75454997      10.00000011  F      -0.00400093       0.01899910      -0.06341686
Cu       3.75454997       3.75454997      10.00000011  F       0.01241129       0.00094493      -0.04770509
Cu       6.25757994       3.75454997      10.00000011  F      -0.02190327      -0.01165543      -0.07692047
Cu       8.76061004       3.75454997      10.00000011  F       0.02154944      -0.02645904      -0.07297697
Cu      11.26364002       3.75454997      10.00000011  F      -0.00479268       0.00692878      -0.05985183
Cu       1.25151999       6.25757994      10.00000011  F       0.00053669      -0.02157329      -0.07100521
Cu       3.75454997       6.25757994      10.00000011  F       0.01072706       0.00025513      -0.06155478
Cu       6.25757994       6.25757994      10.00000011  F      -0.01346656       0.02036650      -0.08612877
Cu       8.76061004       6.25757994      10.00000011  F       0.01466871       0.03427308      -0.07775589
Cu      11.26364002       6.25757994      10.00000011  F      -0.00961437       0.00227397      -0.05985761
Cu       1.25151999       8.76061004      10.00000011  F       0.00584352       0.00976696      -0.06511716
Cu       3.75454997       8.76061004      10.00000011  F      -0.00210365      -0.00591135      -0.06487461
Cu       6.25757994       8.76061004      10.00000011  F       0.00708787      -0.01718997      -0.04909885
Cu       8.76061004       8.76061004      10.00000011  F       0.00953915      -0.02045495      -0.05303120
Cu      11.26364002       8.76061004      10.00000011  F      -0.02128111      -0.01157540      -0.05949348
Cu       1.25151999      11.26364002      10.00000011  F       0.00524127       0.02207960      -0.02332011
Cu       3.75454997      11.26364002      10.00000011  F      -0.01706787       0.01128897      -0.07158357
Cu       6.25757994      11.26364002      10.00000011  F       0.00510309      -0.00291732      -0.07701580
Cu       8.76061004      11.26364002      10.00000011  F      -0.00443313      -0.00617157      -0.06045243
Cu      11.26364002      11.26364002      10.00000011  F       0.00999385       0.00254681      -0.06473720
Cu       0.00000000       0.00000000      11.76991004  F       0.00606890       0.03720321       0.12426075
Cu       2.50302998       0.00000000      11.76991004  F       0.03619812       0.00831646       0.10066595
Cu       5.00605995       0.00000000      11.76991004  F       0.00762388       0.09220779       0.13299847
Cu       7.50909005       0.00000000      11.76991004  F       0.01288937       0.09016790       0.12346224
Cu      10.01212003       0.00000000      11.76991004  F      -0.03872281       0.09661057       0.14201340
Cu       0.00000000       2.50302998      11.76991004  F      -0.05784048       0.00535756       0.13711656
Cu       2.50302998       2.50302998      11.76991004  F       0.08141621      -0.01917201       0.16768616
Cu       5.00605995       2.50302998      11.76991004  F      -0.04240612      -0.05290831       0.14263323
Cu       7.50909005       2.50302998      11.76991004  F      -0.03420337      -0.00400774       0.13205061
Cu      10.01212003       2.50302998      11.76991004  F       0.05120864      -0.03896850       0.08095441
Cu       0.00000000       5.00605995      11.76991004  F      -0.07927327      -0.03109400       0.09073197
Cu       2.50302998       5.00605995      11.76991004  F       0.08023903      -0.01793349       0.09506402
Cu       5.00605995       5.00605995      11.76991004  F      -0.05219821      -0.02473342       0.15969736
Cu       7.50909005       5.00605995      11.76991004  F      -0.05209927       0.00870012       0.17398066
Cu      10.01212003       5.00605995      11.76991004  F       0.02347212       0.00300132       0.10585833
Cu       0.00000000       7.50909005      11.76991004  F      -0.08629139      -0.03886287       0.13213687
Cu       2.50302998       7.50909005      11.76991004  F       0.07663123      -0.06277794       0.10737180
Cu       5.00605995       7.50909005      11.76991004  F       0.00517273       0.01676706       0.11102245
Cu       7.50909005       7.50909005      11.76991004  F      -0.02886288       0.01816216       0.13896445
Cu      10.01212003       7.50909005      11.76991004  F       0.04406737       0.04967944       0.08672516
Cu       0.00000000      10.01212003      11.76991004  F       0.00689386      -0.04119539       0.15581496
Cu       2.50302998      10.01212003      11.76991004  F       0.03151638      -0.02164732       0.12155833
Cu       5.00605995      10.01212003      11.76991004  F       0.01765123      -0.07257533       0.13349266
Cu       7.50909005      10.01212003      11.76991004  F       0.03311213      -0.08670332       0.11236592
Cu      10.01212003      10.01212003      11.76991004  F      -0.05568988      -0.10064417       0.12877889
Cu       1.27693627       1.22553791      13.60273894  T       0.00963728      -0.00870400      -0.00113170
Cu       3.76242701       1.24810298      13.63485926  T      -0.00607875      -0.00215862      -0.01333777
Cu       6.27737341       1.28769229      13.61982933  T      -0.00118724      -0.00164740      -0.00534040
Cu       8.75732244       1.28764786      13.62167492  T      -0.00345505      -0.00647010      -0.00318090
Cu      11.26138566       1.27163685      13.60903625  T       0.01249301      -0.00618781      -0.01141168
Cu       1.25354770       3.73193083      13.58370602  T      -0.00326517       0.00367782      -0.00686470
Cu       3.75136449       3.73126390      13.62625067  T      -0.01407321      -0.01233102      -0.02058658
Cu       6.26280102       3.77380403      13.59198306  T       0.00656487       0.00044751      -0.04096054
Cu       8.74398153       3.76853478      13.56796413  T      -0.00999330      -0.00031361      -0.02630032
Cu      11.23268692       3.76591460      13.61721155  T       0.01155143      -0.00898490       0.00395667
Cu       1.24166131       6.23997262      13.57738163  T      -0.00463156       0.00403086      -0.01268145
Cu       3.76542026       6.24142225      13.60850829  T      -0.02802226       0.01234913      -0.01717697
Cu       6.26594545       6.24862122      13.59209898  T       0.00766764      -0.00565059      -0.04328340
Cu       8.74106112       6.24970078      13.57262821  T      -0.00569226      -0.00516652      -0.04526523
Cu      11.22614487       6.25034506      13.61827506  T       0.00499774       0.00077750      -0.00714237
Cu       1.25938439       8.75286842      13.57897842  T      -0.00974721       0.01739106      -0.00563190
Cu       3.78784879       8.73903705      13.60293180  T      -0.01028382       0.00013866      -0.00476772
Cu       6.28573616       8.73315443      13.62523726  T      -0.00027723      -0.00275173      -0.00097346
Cu       8.76004211       8.73182945      13.62689176  T      -0.00151397       0.01371244      -0.00319246
Cu      11.25516476       8.74332036      13.61638797  T       0.01787537       0.01214511      -0.02725799
Cu       1.25704656      11.26180317      13.62008066  T      -0.01231731      -0.00120356      -0.02185307
Cu       3.73038108      11.26726503      13.59760891  T      -0.01235696       0.00949205       0.00460631
Cu       6.25614170      11.25951603      13.56671990  T      -0.00380248       0.00918212       0.00187759
Cu       8.76045961      11.26520241      13.58078832  T      -0.00111466      -0.00577069      -0.01394272
Cu      11.26364978      11.25663153      13.57580534  T       0.02595216      -0.00431753      -0.00425089
Cu      12.45663803      12.49734432      15.36236248  T      -0.00486549       0.00561436      -0.07121960
Cu       2.49514580      12.37751560      15.49132872  T       0.01699534      -0.00156229      -0.05169413
Cu       5.04041755      12.48172716      15.35147601  T       0.00099240      -0.01633980      -0.05083004
Cu       7.51185552      12.50370514      15.36530322  T      -0.00486623       0.00524460      -0.06077169
Cu       9.99559489      12.50021855      15.37248865  T      -0.01400921      -0.00082219      -0.05234101
Cu       0.04980230       2.49978217      15.37689660  T       0.01958782       0.00671161      -0.03364906
Cu       2.52687760       2.52018262      15.46566111  T      -0.01307015       0.01428168      -0.04941922
Cu       5.01594980       2.42785533      15.48111219  T      -0.02781493      -0.04342787      -0.08487980
Cu       7.54696028       2.52387346      15.49737294  T       0.01529321      -0.08143380      -0.12085231
Cu      10.09753432       2.45872658      15.47003387  T       0.03110296      -0.05013835      -0.08415605
Cu      12.47843968       5.00487827      15.36333387  T       0.00111116      -0.00527280      -0.06013506
Cu       2.39344716       5.00831005      15.40541282  T      -0.01840722       0.00166002      -0.04018094
Pd       4.91890717       5.00621163      15.54848239  T       0.02458568      -0.00485697      -0.06095183
Y        7.48409291       5.01274066      17.25773046  T      -0.01884569      -0.01905923       0.07194038
Cu       9.97117345       5.00981324      15.46699038  T       0.07215368       0.00641980      -0.11623672
Cu       0.05543838       7.50725082      15.37652885  T      -0.00158688      -0.01085059      -0.05414387
Cu       2.51996298       7.46975305      15.37030797  T       0.01080774       0.00059911      -0.06194679
Cu       4.99302654       7.59451536      15.48534423  T      -0.04253271       0.05257549      -0.07756576
Cu       7.54438854       7.50412178      15.49814994  T       0.01894271       0.05280294      -0.11688981
Cu      10.09265704       7.55751256      15.47292222  T       0.03853838       0.05074748      -0.07597994
Cu       0.00011789       9.99876148      15.39207155  T      -0.00760482       0.00001009      -0.08362547
Cu       2.50709690       9.91889690      15.38733408  T       0.01353842       0.00277737      -0.06435511
Cu       5.00228175      10.04465479      15.37020243  T       0.00495277       0.01202980      -0.05100379
Cu       7.50755019      10.03722693      15.37117837  T      -0.00459240      -0.00338789      -0.06136950
Cu      10.01869449      10.03693207      15.38040630  T      -0.01041667      -0.00238951      -0.06172882
O        6.14456573       3.42382777      16.68491762  T      -0.09968166       0.04085108       0.10723946
O        6.14017066       6.58963062      16.66130440  T      -0.09962877      -0.01774839       0.10323355
O        8.97531839       6.43233855      16.55159001  T       0.07214846       0.09401167       0.08563994
O        8.97387114       3.59008934      16.53806398  T       0.07095795      -0.06331049       0.11222813
C        2.40614629       1.79185487      17.24125358  T      -0.02749496       0.19254615       0.32041084
O        2.39735027       0.54445637      17.44023665  T      -0.00354400       0.08652506      -0.00753811
H        2.44955235       1.98574714      19.46517602  T      -0.00286794       0.14526855      -0.17159979
C        2.36817544       2.62578511      18.54018081  T      -0.02193228       0.02308004      -0.13332150
O        2.25186311       3.84108963      18.59047985  T       0.05553985      -0.29477764      -0.10919117
109
Lattice="12.51515363 0.0 0.0 0.0 12.51515363 0.0 0.0 0.0 25.30973" Properties=species:S:1:pos:R:3:move_mask:L:1:forces:R:3 energy=-453.02613447 stress="0.008690835410547517 -5.3202130709807944e-05 -1.5102423594171574e-05 -5.3202130709807944e-05 0.008467602456479435 -0.0002406839888897223 -1.5102423594171574e-05 -0.0002406839888897223 0.0035211477291330604" free_energy=-453.02657879 pbc="T T T"
Cu       1.25151999       1.25151999      10.00000011  F       0.00108759      -0.02934465      -0.05524261
Cu       3.75454997       1.25151999      10.00000011  F      -0.00267467      -0.00587906      -0.05480074
Cu       6.25757994       1.25151999      10.00000011  F      -0.00838984       0.01212123      -0.04959301
Cu       8.76061004       1.25151999      10.00000011  F       0.00740609       0.01675272      -0.04816398
Cu      11.26364002       1.25151999      10.00000011  F      -0.00050677      -0.00128573      -0.07118808
Cu       1.25151999       3.75454997      10.00000011  F      -0.00385291       0.01910682      -0.06377426
Cu       3.75454997       3.75454997      10.00000011  F       0.01241726       0.00100713      -0.04789707
Cu       6.25757994       3.75454997      10.00000011  F      -0.02206249      -0.01151950      -0.07710753
Cu       8.76061004       3.75454997      10.00000011  F       0.02140863      -0.02629156      -0.07325054
Cu      11.26364002       3.75454997      10.00000011  F      -0.00468852       0.00712679      -0.06015502
Cu       1.25151999       6.25757994      10.00000011  F       0.00073455      -0.02164148      -0.07155225
Cu       3.75454997       6.25757994      10.00000011  F       0.01076880       0.00024470      -0.06183034
Cu       6.25757994       6.25757994      10.00000011  F      -0.01366800       0.02033948      -0.08637590
Cu       8.76061004       6.25757994      10.00000011  F       0.01451827       0.03420160      -0.07818595
Cu      11.26364002       6.25757994      10.00000011  F      -0.00953562       0.00216123      -0.06043368
Cu       1.25151999       8.76061004      10.00000011  F       0.00604310       0.00984048      -0.06541537
Cu       3.75454997       8.76061004      10.00000011  F      -0.00197037      -0.00582245      -0.06496666
Cu       6.25757994       8.76061004      10.00000011  F       0.00680503      -0.01705367      -0.04915153
Cu       8.76061004       8.76061004      10.00000011  F       0.00944660      -0.02032622      -0.05340815
Cu      11.26364002       8.76061004      10.00000011  F      -0.02129918      -0.01144795      -0.06002722
Cu       1.25151999      11.26364002      10.00000011  F       0.00540808       0.02225317      -0.02354061
Cu       3.75454997      11.26364002      10.00000011  F      -0.01692134       0.01146672      -0.07139631
Cu       6.25757994      11.26364002      10.00000011  F       0.00487788      -0.00275213      -0.07686994
Cu       8.76061004      11.26364002      10.00000011  F      -0.00455797      -0.00599103      -0.06060544
Cu      11.26364002      11.26364002      10.00000011  F       0.00997378       0.00263768      -0.06503227
Cu       0.00000000       0.00000000      11.76991004  F       0.00644191       0.03773271       0.12375149
Cu       2.50302998       0.00000000      11.76991004  F       0.03655678       0.00841446       0.10007609
Cu       5.00605995       0.00000000      11.76991004  F       0.00737812       0.09224569       0.13280492
Cu       7.50909005       0.00000000      11.76991004  F       0.01252335       0.09017588       0.12306392
Cu      10.01212003       0.00000000      11.76991004  F      -0.03875635       0.09674474       0.14204572
Cu       0.00000000       2.50302998      11.76991004  F      -0.05753995       0.00552709       0.13706661
Cu       2.50302998       2.50302998      11.76991004  F       0.08123711      -0.01928990       0.16707194
Cu       5.00605995       2.50302998      11.76991004  F      -0.04263057      -0.05323956       0.14176199
Cu       7.50909005       2.50302998      11.76991004  F      -0.03438849      -0.00440809       0.13109295
Cu      10.01212003       2.50302998      11.76991004  F       0.05141881      -0.03885727       0.08096915
Cu       0.00000000       5.00605995      11.76991004  F      -0.07930546      -0.03123453       0.09049866
Cu       2.50302998       5.00605995      11.76991004  F       0.08018356      -0.01813582       0.09466255
Cu       5.00605995       5.00605995      11.76991004  F      -0.05280537      -0.02453578       0.15882150
Cu       7.50909005       5.00605995      11.76991004  F      -0.05226733       0.00850853       0.17219095
Cu      10.01212003       5.00605995      11.76991004  F       0.02397380       0.00262443       0.10549190
Cu       0.00000000       7.50909005      11.76991004  F      -0.08596025      -0.03898072       0.13179001
Cu       2.50302998       7.50909005      11.76991004  F       0.07661866      -0.06229186       0.10687212
Cu       5.00605995       7.50909005      11.76991004  F       0.00491979       0.01721672       0.11055075
Cu       7.50909005       7.50909005      11.76991004  F      -0.02921276       0.01896209       0.13810953
Cu      10.01212003       7.50909005      11.76991004  F       0.04403692       0.04992929       0.08646912
Cu       0.00000000      10.01212003      11.76991004  F       0.00718473      -0.04094946       0.15460592
Cu       2.50302998      10.01212003      11.76991004  F       0.03212181      -0.02125818       0.12131271
Cu       5.00605995      10.01212003      11.76991004  F       0.01753623      -0.07223002       0.13363931