109
Lattice="12.51515363 0.0 0.0 0.0 12.51515363 0.0 0.0 0.0 25.30973" Properties=species:S:1:pos:R:3:move_mask:L:1:forces:R:3 energy=-452.66448829 stress="0.0076903934497856334 -3.762912229358128e-06 -0.00030931913096606336 -3.762912229358128e-06 0.007985431720762257 5.490973895004922e-06 -0.00030931913096606336 5.490973895004922e-06 0.0031839674314139144" free_energy=-452.67064318 pbc="T T T"
Cu       1.25151999       1.25151999      10.00000011  F      -0.00735148      -0.01201795      -0.07956831
Cu       3.75454997       1.25151999      10.00000011  F       0.01805855      -0.00369869      -0.07343197
Cu       6.25757994       1.25151999      10.00000011  F      -0.00960793       0.01544411      -0.06350899
Cu       8.76061004       1.25151999      10.00000011  F      -0.00156103       0.02149661      -0.05085538
Cu      11.26364002       1.25151999      10.00000011  F       0.00056849       0.00983335      -0.07697589
Cu       1.25151999       3.75454997      10.00000011  F      -0.00265037       0.00895147      -0.06167673
Cu       3.75454997       3.75454997      10.00000011  F       0.00872954      -0.00733862      -0.05897153
Cu       6.25757994       3.75454997      10.00000011  F      -0.00606816      -0.01815928      -0.07748960
Cu       8.76061004       3.75454997      10.00000011  F       0.00854787      -0.02322722      -0.08524921
Cu      11.26364002       3.75454997      10.00000011  F      -0.01048986      -0.01041097      -0.04181243
Cu       1.25151999       6.25757994      10.00000011  F      -0.00223151      -0.00679682      -0.06324874
Cu       3.75454997       6.25757994      10.00000011  F       0.00908853       0.00836761      -0.05914786
Cu       6.25757994       6.25757994      10.00000011  F      -0.00546104       0.02031484      -0.08109901
Cu       8.76061004       6.25757994      10.00000011  F       0.00652342       0.02467470      -0.08594096
Cu      11.26364002       6.25757994      10.00000011  F      -0.00993286       0.01172335      -0.04367118
Cu       1.25151999       8.76061004      10.00000011  F      -0.00691211       0.00814153      -0.07829548
Cu       3.75454997       8.76061004      10.00000011  F       0.01678297       0.00126218      -0.07280739
Cu       6.25757994       8.76061004      10.00000011  F      -0.00883862      -0.01945038      -0.06044900
Cu       8.76061004       8.76061004      10.00000011  F      -0.00114199      -0.02444571      -0.05057961
Cu      11.26364002       8.76061004      10.00000011  F       0.00002581      -0.01271480      -0.07545629
Cu       1.25151999      11.26364002      10.00000011  F      -0.00977765       0.00194058      -0.01570635
Cu       3.75454997      11.26364002      10.00000011  F       0.00143001       0.00175597      -0.06905009
Cu       6.25757994      11.26364002      10.00000011  F      -0.01253524       0.00208653      -0.08165229
Cu       8.76061004      11.26364002      10.00000011  F       0.00109735       0.00187278      -0.06611286
Cu      11.26364002      11.26364002      10.00000011  F       0.02238149       0.00190538      -0.06576963
Cu       0.00000000       0.00000000      11.76991004  F      -0.01880608       0.04859745       0.10854236
Cu       2.50302998       0.00000000      11.76991004  F       0.03025344       0.00693331       0.11864212
Cu       5.00605995       0.00000000      11.76991004  F       0.00632838       0.07024144       0.07748674
Cu       7.50909005       0.00000000      11.76991004  F      -0.00355075       0.04660498       0.08720665
Cu      10.01212003       0.00000000      11.76991004  F      -0.03987388       0.08209394       0.10854650
Cu       0.00000000       2.50302998      11.76991004  F      -0.07673141       0.04969431       0.12362692
Cu       2.50302998       2.50302998      11.76991004  F       0.02021583       0.04277336       0.10713494
Cu       5.00605995       2.50302998      11.76991004  F      -0.04162990      -0.07192572       0.05119701
Cu       7.50909005       2.50302998      11.76991004  F       0.02355639       0.02392110       0.16668585
Cu      10.01212003       2.50302998      11.76991004  F       0.03922678       0.02237051       0.18100636
Cu       0.00000000       5.00605995      11.76991004  F      -0.09507991       0.00281403       0.09270404
Cu       2.50302998       5.00605995      11.76991004  F       0.04935532       0.00125774       0.10685463
Cu       5.00605995       5.00605995      11.76991004  F      -0.05915332       0.00226525       0.09410619
Cu       7.50909005       5.00605995      11.76991004  F       0.04890134       0.00184932       0.22899282
Cu      10.01212003       5.00605995      11.76991004  F       0.01881620       0.00206675       0.29652143
Cu       0.00000000       7.50909005      11.76991004  F      -0.07761841      -0.04969856       0.12559247
Cu       2.50302998       7.50909005      11.76991004  F       0.02122683      -0.04218696       0.10522122
Cu       5.00605995       7.50909005      11.76991004  F      -0.04235070       0.06715161       0.05344986
Cu       7.50909005       7.50909005      11.76991004  F       0.02264706      -0.02677616       0.16763687
Cu      10.01212003       7.50909005      11.76991004  F       0.03868030      -0.02203104       0.18173642
Cu       0.00000000      10.01212003      11.76991004  F      -0.01860112      -0.04454258       0.10615179
Cu       2.50302998      10.01212003      11.76991004  F       0.02979747      -0.00655294       0.11965402
Cu       5.00605995      10.01212003      11.76991004  F       0.00776615      -0.06696311       0.07421121
Cu       7.50909005      10.01212003      11.76991004  F      -0.00468278      -0.04345697       0.08554432
Cu      10.01212003      10.01212003      11.76991004  F      -0.04073820      -0.07853628       0.10753682
Cu       1.25066696       1.24295124      13.58330031  T      -0.00660851      -0.00823183      -0.00068899
Cu       3.76332559       1.25436581      13.61056243  T      -0.00630968      -0.00950125      -0.00882791
Cu       6.24659790       1.26549216      13.60594973  T      -0.00721121      -0.00761710       0.00943153
Cu       8.73924392       1.27628798      13.60979959  T      -0.01139057      -0.00717067      -0.00088662
Cu      11.24828718       1.26526664      13.60046081  T       0.00196601      -0.01143403      -0.00727896
Cu       1.23271360       3.76226118      13.58666169  T       0.00112090      -0.00561896       0.00781845
Cu       3.76922273       3.74123635      13.59850639  T      -0.01045184      -0.00897576      -0.00078528
Cu       6.26502558       3.76282574      13.56626762  T       0.00152197      -0.00947003      -0.06237963
Cu       8.76235941       3.77988615      13.61118404  T       0.00494845      -0.00334646      -0.03677085
Cu      11.24877439       3.78700739      13.64633065  T       0.01087625      -0.00167813       0.00715582
Cu       1.23287517       6.25123276      13.58605957  T       0.00106010       0.00422892       0.00862884
Cu       3.76873114       6.27065515      13.59888477  T      -0.01101521       0.01076269      -0.00179770
Cu       6.26452473       6.24950880      13.56601857  T       0.00296428       0.00753866      -0.06043228
Cu       8.76193327       6.23206843      13.61104433  T       0.00606895       0.00162607      -0.03456751
Cu      11.24862421       6.22747149      13.64613576  T       0.01151784      -0.00362280       0.00496399
Cu       1.25036747       8.76974798      13.58384700  T      -0.00648365       0.00381045      -0.00032048
Cu       3.76342997       8.75781891      13.61037286  T      -0.00650639       0.00877694      -0.00827432
Cu       6.24634221       8.74691308      13.60589734  T      -0.00699520       0.00871295       0.01116859
Cu       8.73882855       8.73669596      13.60923772  T      -0.01107524       0.00932567       0.00024407
Cu      11.24826640       8.74898860      13.60032338  T       0.00201884       0.01140215      -0.00615942
Cu       1.25478783      11.26395415      13.60925088  T       0.00522272       0.00154193      -0.00773633
Cu       3.74770568      11.26360886      13.58929593  T      -0.01231148       0.00077412      -0.00065286
Cu       6.25425467      11.26382925      13.57236423  T      -0.00443471       0.00208306      -0.00037435
Cu       8.76633410      11.26417166      13.57443532  T      -0.00562142       0.00168269      -0.00104971
Cu      11.27736263      11.26461195      13.57953219  T       0.02355380       0.00126184      -0.00635839
Cu       0.00089145      12.51166078      15.39930001  T      -0.00519547       0.01387298      -0.09040417
Cu       2.51387623       0.00538702      15.40005677  T      -0.00641491       0.01102348      -0.07886005
Cu       5.01042574      12.48694835      15.38472009  T       0.02395659       0.00928152      -0.05903443
Cu       7.51010653      12.48607129      15.35886696  T       0.00172582       0.00299274      -0.05277251
Cu      10.02026551      12.48722156      15.36752896  T      -0.01446870       0.00320952      -0.05331241
Cu       0.00691074       2.47126239      15.36624778  T      -0.01041758       0.01870198      -0.05294539
Cu       2.46918675       2.50206618      15.36443586  T      -0.02302549       0.00696962      -0.04687705
Cu       4.91809895       2.42190775      15.50362545  T      -0.05396335      -0.07166306      -0.07869145
Cu       7.40184870       2.46371650      15.44266418  T      -0.05655001      -0.10676713      -0.13297766
Cu      10.06138092       2.43077461      15.43438967  T       0.04495617      -0.05711675      -0.08311378
Cu       0.09650197       5.00879952      15.49497737  T       0.02417576       0.00213671      -0.04987353
Cu       2.50520386       5.00519891      15.33700163  T       0.00149419       0.00049237      -0.07869293
Pd       4.99021752       5.00653065      15.51546357  T       0.02244470       0.00204512      -0.07781048
Y        7.49636101       5.00580126      17.26138291  T      -0.02840244      -0.00026428       0.09692892
Cu      10.17944638       5.00808378      15.71488020  T       0.07105796      -0.00521336      -0.07593430
Cu       0.00591379       7.54360372      15.36743278  T      -0.01073969      -0.01164678      -0.05219564
Cu       2.46917073       7.50938503      15.36379223  T      -0.02111815      -0.01119640      -0.04724741
Cu       4.91820582       7.59099497      15.50392917  T      -0.05443876       0.06986276      -0.08151501
Cu       7.40191303       7.54867523      15.44261053  T      -0.05654034       0.11002557      -0.13486376
Cu      10.05996521       7.58533487      15.43343524  T       0.04536975       0.05054364      -0.08523453
Cu       0.00083902      10.01847510      15.39948072  T      -0.00539387      -0.01492763      -0.09125928
Cu       2.51401478      10.00641562      15.40015674  T      -0.00650304      -0.01035619      -0.07923447
Cu       5.01037555      10.04073117      15.38451761  T       0.02468858      -0.01149173      -0.05854194
Cu       7.51004295      10.04120662      15.35888872  T       0.00060271      -0.00828288      -0.05411604
Cu      10.02018792      10.04262671      15.36749833  T      -0.01502760      -0.00532904      -0.05384190
O        6.04694340       3.42800158      16.68660248  T      -0.06607582       0.01089528       0.12849447
O        6.04949174       6.58620810      16.68651770  T      -0.06559569      -0.01186672       0.12895679
O        8.76190887       6.46148296      16.26059999  T       0.08172524       0.02006841      -0.05486855
O        8.76075585       3.54417474      16.26892082  T       0.08597541      -0.01586589      -0.05682872
C       10.55407136       4.99861030      17.68862052  T       0.38468591      -0.00850400       0.46214187
O        9.55010786       5.00863557      18.46734396  T       0.39986005      -0.00914949      -0.07870376
H       12.02771355       4.89363683      19.36868875  T       0.00454294       0.03210176      -0.25698952
C       11.91928639       4.96686311      18.26139919  T      -0.25751768      -0.00776849      -0.04148932
O        0.43527429       4.99708671      17.53018642  T      -0.26292735      -0.01315006       0.18017548
109
Lattice="12.51515363 0.0 0.0 0.0 12.51515363 0.0 0.0 0.0 25.30973" Properties=species:S:1:pos:R:3:move_mask:L:1:forces:R:3 energy=-452.67445244 stress="0.007535754475041209 -3.0443460082225666e-06 -0.0002740971340480067 -3.0443460082225666e-06 0.007950235682280654 7.599780100348847e-06 -0.0002740971340480067 7.599780100348847e-06 0.0030848428667821443" free_energy=-452.68069288 pbc="T T T"
Cu       1.25151999       1.25151999      10.00000011  F      -0.00727451      -0.01225160      -0.08012335
Cu       3.75454997       1.25151999      10.00000011  F       0.01822955      -0.00391627      -0.07366313
Cu       6.25757994       1.25151999      10.00000011  F      -0.00963107       0.01533432      -0.06361292
Cu       8.76061004       1.25151999      10.00000011  F      -0.00181570       0.02146235      -0.05111092
Cu      11.26364002       1.25151999      10.00000011  F       0.00055296       0.00964034      -0.07741207
Cu       1.25151999       3.75454997      10.00000011  F      -0.00249788       0.00888729      -0.06189840
Cu       3.75454997       3.75454997      10.00000011  F       0.00878864      -0.00736498      -0.05893112
Cu       6.25757994       3.75454997      10.00000011  F      -0.00595491      -0.01818452      -0.07726508
Cu       8.76061004       3.75454997      10.00000011  F       0.00831959      -0.02320844      -0.08546380
Cu      11.26364002       3.75454997      10.00000011  F      -0.01059095      -0.01044590      -0.04219456
Cu       1.25151999       6.25757994      10.00000011  F      -0.00207272      -0.00678508      -0.06349331
Cu       3.75454997       6.25757994      10.00000011  F       0.00915146       0.00834057      -0.05914288
Cu       6.25757994       6.25757994      10.00000011  F      -0.00533949       0.02029421      -0.08087904
Cu       8.76061004       6.25757994      10.00000011  F       0.00628781       0.02462617      -0.08615197
Cu      11.26364002       6.25757994      10.00000011  F      -0.01004497       0.01170743      -0.04404921
Cu       1.25151999       8.76061004      10.00000011  F      -0.00684303       0.00836340      -0.07889950
Cu       3.75454997       8.76061004      10.00000011  F       0.01696540       0.00147165      -0.07308093
Cu       6.25757994       8.76061004      10.00000011  F      -0.00885285      -0.01935274      -0.06054694
Cu       8.76061004       8.76061004      10.00000011  F      -0.00138695      -0.02443383      -0.05082937
Cu      11.26364002       8.76061004      10.00000011  F      -0.00000971      -0.01253217      -0.07589306
Cu       1.25151999      11.26364002      10.00000011  F      -0.00972865       0.00194513      -0.01713385
Cu       3.75454997      11.26364002      10.00000011  F       0.00143913       0.00176095      -0.06970772
Cu       6.25757994      11.26364002      10.00000011  F      -0.01276654       0.00208421      -0.08193680
Cu       8.76061004      11.26364002      10.00000011  F       0.00109023       0.00186500      -0.06683884
Cu      11.26364002      11.26364002      10.00000011  F       0.02250044       0.00190479      -0.06707213
Cu       0.00000000       0.00000000      11.76991004  F      -0.01862894       0.04866012       0.10735754
Cu       2.50302998       0.00000000      11.76991004  F       0.03041161       0.00682560       0.11768582
Cu       5.00605995       0.00000000      11.76991004  F       0.00645726       0.07018964       0.07688714
Cu       7.50909005       0.00000000      11.76991004  F      -0.00383581       0.04646908       0.08672205
Cu      10.01212003       0.00000000      11.76991004  F      -0.04022323       0.08201338       0.10808608
Cu       0.00000000       2.50302998      11.76991004  F      -0.07643784       0.04980311       0.12349960
Cu       2.50302998       2.50302998      11.76991004  F       0.02022666       0.04281214       0.10673782
Cu       5.00605995       2.50302998      11.76991004  F      -0.04202744      -0.07255644       0.05013033
Cu       7.50909005       2.50302998      11.76991004  F       0.02343932       0.02320573       0.16547162
Cu      10.01212003       2.50302998      11.76991004  F       0.03924387       0.02229025       0.18102662
Cu       0.00000000       5.00605995      11.76991004  F      -0.09490909       0.00274266       0.09301069
Cu       2.50302998       5.00605995      11.76991004  F       0.04934717       0.00122171       0.10665267
Cu       5.00605995       5.00605995      11.76991004  F      -0.06001336       0.00226246       0.09290156
Cu       7.50909005       5.00605995      11.76991004  F       0.04924864       0.00186596       0.22701388
Cu      10.01212003       5.00605995      11.76991004  F       0.01927284       0.00202748       0.29607625
Cu       0.00000000       7.50909005      11.76991004  F      -0.07735226      -0.04987130       0.12548077
Cu       2.50302998       7.50909005      11.76991004  F       0.02124391      -0.04226314       0.10478045
Cu       5.00605995       7.50909005      11.76991004  F      -0.04266036       0.06774499       0.05247223
Cu       7.50909005       7.50909005      11.76991004  F       0.02252047      -0.02608584       0.16654810
Cu      10.01212003       7.50909005      11.76991004  F       0.03866865      -0.02198202       0.18186066
Cu       0.00000000      10.01212003      11.76991004  F      -0.01839181      -0.04459871       0.10507878
Cu       2.50302998      10.01212003      11.76991004  F       0.02993886      -0.00645603       0.11878025
Cu       5.00605995      10.01212003      11.76991004  F       0.00791069      -0.06690038       0.07367771
Cu       7.50909005      10.01212003      11.76991004  F      -0.00499392      -0.04333045       0.08514705
Cu      10.01212003      10.01212003      11.76991004  F      -0.04109699      -0.07845249       0.10713891
Cu       1.25060313       1.24287190      13.58329373  T      -0.00612606      -0.00691263      -0.00362973
Cu       3.76326465       1.25427420      13.61047714  T      -0.00644168      -0.00924413      -0.01197548
Cu       6.24652831       1.26541870      13.60604085  T      -0.00849323      -0.00834849       0.00323305
Cu       8.73913404       1.27621877      13.60979099  T      -0.01058213      -0.00702655      -0.00460796
Cu      11.24830620       1.26515638      13.60039070  T       0.00188648      -0.01110273      -0.01086909
Cu       1.23272436       3.76220699      13.58673712  T       0.00106641      -0.00507636       0.00407309
Cu       3.76912186       3.74114974      13.59849880  T      -0.00891944      -0.00869936      -0.00347073
Cu       6.26504035       3.76273438      13.56566575  T       0.00084594      -0.00874219      -0.05834745
Cu       8.76240709       3.77985386      13.61082919  T       0.00397833      -0.00344907      -0.03414664
Cu      11.24887940       3.78699125      13.64639974  T       0.01018784      -0.00143154       0.00411256
Cu       1.23288543       6.25127356      13.58614284  T       0.00097389       0.00371213       0.00483056
Cu       3.76862489       6.27075890      13.59886731  T      -0.00938617       0.01029615      -0.00446453
Cu       6.26455339       6.24958151      13.56543543  T       0.00228239       0.00699432      -0.05667464
Cu       8.76199184       6.23208407      13.61071074  T       0.00498571       0.00194988      -0.03201858
Cu      11.24873535       6.22743657      13.64618385  T       0.01081462      -0.00359051       0.00221828
Cu       1.25030490       8.76978478      13.58384396  T      -0.00593507       0.00288458      -0.00332037
Cu       3.76336714       8.75790364      13.61029313  T      -0.00663354       0.00866138      -0.01147921
Cu       6.24627476       8.74699706      13.60600491  T      -0.00837452       0.00934609       0.00474089
Cu       8.73872167       8.73678595      13.60924025  T      -0.01024094       0.00895499      -0.00361344
Cu      11.24828580       8.74909861      13.60026415  T       0.00188608       0.01098740      -0.00991266
Cu       1.25483826      11.26396904      13.60917622  T       0.00539285       0.00128566      -0.01030633
Cu       3.74758691      11.26361637      13.58928960  T      -0.01035015       0.00066739      -0.00291495
Cu       6.25421187      11.26384940      13.57236068  T      -0.00428863       0.00188232      -0.00324153
Cu       8.76627991      11.26418793      13.57442520  T      -0.00505494       0.00152465      -0.00357340
Cu      11.27758991      11.26462421      13.57947094  T       0.02068368       0.00111658      -0.00851164
Cu       0.00084127      12.51179469      15.39842784  T      -0.00536477       0.01322965      -0.08559163
Cu       2.51381441       0.00549340      15.39929596  T      -0.00538264       0.01049421      -0.07496091
Cu       5.01065689      12.48703796      15.38415036  T       0.02236856       0.00648539      -0.05628573
Cu       7.51012318      12.48610008      15.35835772  T       0.00179030       0.00008567      -0.04979435
Cu      10.02012597      12.48725247      15.36701467  T      -0.01379965       0.00114474      -0.05092772
Cu       0.00681012       2.47144285      15.36573703  T      -0.00905998       0.01900396      -0.04926761
Cu       2.46896448       2.50213351      15.36398357  T      -0.02323928       0.00684774      -0.04440932
Cu       4.91757831       2.42121629      15.50286616  T      -0.04376061      -0.05807449      -0.06688758
Cu       7.40130304       2.46268638      15.44138098  T      -0.04745137      -0.08689714      -0.11441575
Cu      10.06181470       2.43022357      15.43358786  T       0.03823713      -0.04920938      -0.07611802
Cu       0.09673525       5.00882017      15.49449598  T       0.02387071       0.00210795      -0.03543267
Cu       2.50521825       5.00520366      15.33624234  T       0.00234967       0.00031920      -0.07395702
Pd       4.99043403       5.00655042      15.51471288  T       0.02650582       0.00169323      -0.06462221
Y        7.49608693       5.00579876      17.26231810  T      -0.01473123      -0.00069826       0.07837240
Cu      10.18013208       5.00803346      15.71414774  T       0.06831153      -0.00513926      -0.05113126
Cu       0.00581016       7.54349133      15.36692912  T      -0.00935164      -0.01246972      -0.04842583
Cu       2.46896698       7.50927690      15.36333640  T      -0.02154006      -0.01083260      -0.04464633
Cu       4.91768056       7.59166916      15.50314254  T      -0.04367642       0.05649578      -0.06918940
Cu       7.40136749       7.54973689      15.44130935  T      -0.04745733       0.08955529      -0.11587396
Cu      10.06040286       7.58582258      15.43261268  T       0.03922703       0.04304884      -0.07849282
Cu       0.00078708      10.01833105      15.39860020  T      -0.00552432      -0.01395306      -0.08645712
Cu       2.51395207      10.00631562      15.39939214  T      -0.00543042      -0.00982434      -0.07526779
Cu       5.01061384      10.04062028      15.38395295  T       0.02306136      -0.00863103      -0.05586555
Cu       7.51004871      10.04112677      15.35836658  T       0.00077827      -0.00496137      -0.05109561
Cu      10.02004299      10.04257528      15.36697873  T      -0.01428358      -0.00329147      -0.05141789
O        6.04630575       3.42810670      16.68784241  T      -0.06449580       0.00762763       0.11457157
O        6.04885884       6.58609359      16.68776192  T      -0.06418175      -0.00841272       0.11474747
O        8.76269745       6.46167657      16.26007051  T       0.07214023       0.01424914      -0.05386852
O        8.76158535       3.54402168      16.26837261  T       0.07608732      -0.00955968      -0.05609728
C       10.55778298       4.99852821      17.69307933  T       0.34307664      -0.00690208       0.25453450
O        9.55396603       5.00854721      18.46658467  T       0.24201205      -0.00695824       0.02835133
H       12.02775748       4.89394645      19.36620915  T      -0.00479373       0.02758437      -0.19713752
C       11.91680163       4.96678815      18.26099905  T      -0.17706438      -0.01000119       0.04330570
O        0.43273747       4.99695993      17.53192494  T      -0.15925954      -0.00964649       0.08473064
109
Lattice="12.51515363 0.0 0.0 0.0 12.51515363 0.0 0.0 0.0 25.30973" Properties=species:S:1:pos:R:3:move_mask:L:1:forces:R:3 energy=-452.68101679 stress="0.0073556531452290685 -1.3966687386080225e-06 -0.00025643311396895404 -1.3966687386080225e-06 0.007911864644280297 1.0115913432757039e-05 -0.00025643311396895404 1.0115913432757039e-05 0.0029706872252470208" free_energy=-452.68741461 pbc="T T T"
Cu       1.25151999       1.25151999      10.00000011  F      -0.00767481      -0.01233532      -0.07991512
Cu       3.75454997       1.25151999      10.00000011  F       0.01804227      -0.00412037      -0.07382917
Cu       6.25757994       1.25151999      10.00000011  F      -0.00948935       0.01515389      -0.06385584
Cu       8.76061004       1.25151999      10.00000011  F      -0.00156270       0.02135958      -0.05107001
Cu      11.26364002       1.25151999      10.00000011  F       0.00074004       0.00949483      -0.07703653
Cu       1.25151999       3.75454997      10.00000011  F      -0.00267475       0.00870820      -0.06180298
Cu       3.75454997       3.75454997      10.00000011  F       0.00844334      -0.00741504      -0.05911693
Cu       6.25757994       3.75454997      10.00000011  F      -0.00571825      -0.01831146      -0.07753200
Cu       8.76061004       3.75454997      10.00000011  F       0.00851173      -0.02331193      -0.08605782
Cu      11.26364002       3.75454997      10.00000011  F      -0.01046459      -0.01066587      -0.04232013
Cu       1.25151999       6.25757994      10.00000011  F      -0.00224979      -0.00665057      -0.06342871
Cu       3.75454997       6.25757994      10.00000011  F       0.00880031       0.00832881      -0.05933838
Cu       6.25757994       6.25757994      10.00000011  F      -0.00509941       0.02036818      -0.08115428
Cu       8.76061004       6.25757994      10.00000011  F       0.00647862       0.02467269      -0.08675282
Cu      11.26364002       6.25757994      10.00000011  F      -0.00991476       0.01188328      -0.04419140
Cu       1.25151999       8.76061004      10.00000011  F      -0.00725199       0.00842316      -0.07869767
Cu       3.75454997       8.76061004      10.00000011  F       0.01679419       0.00167615      -0.07325862
Cu       6.25757994       8.76061004      10.00000011  F      -0.00872858      -0.01918603      -0.06081837
Cu       8.76061004       8.76061004      10.00000011  F      -0.00112392      -0.02435150      -0.05078532
Cu      11.26364002       8.76061004      10.00000011  F       0.00017730      -0.01240132      -0.07555186
Cu       1.25151999      11.26364002      10.00000011  F      -0.01000894       0.00194765      -0.01696165
Cu       3.75454997      11.26364002      10.00000011  F       0.00142780       0.00175754      -0.06948485
Cu       6.25757994      11.26364002      10.00000011  F      -0.01290925       0.00208213      -0.08184591
Cu       8.76061004      11.26364002      10.00000011  F       0.00147818       0.00187277      -0.06665949
Cu      11.26364002      11.26364002      10.00000011  F       0.02259438       0.00190444      -0.06647947
Cu       0.00000000       0.00000000      11.76991004  F      -0.01866237       0.04875355       0.10511537
Cu       2.50302998       0.00000000      11.76991004  F       0.02966194       0.00671991       0.11594554
Cu       5.00605995       0.00000000      11.76991004  F       0.00627686       0.06992190       0.07563911
Cu       7.50909005       0.00000000      11.76991004  F      -0.00355369       0.04597937       0.08562920
Cu      10.01212003       0.00000000      11.76991004  F      -0.03998307       0.08168316       0.10725419
Cu       0.00000000       2.50302998      11.76991004  F      -0.07614415       0.04961690       0.12298628
Cu       2.50302998       2.50302998      11.76991004  F       0.01916108       0.04268072       0.10595290
Cu       5.00605995       2.50302998      11.76991004  F      -0.04340055      -0.07408971       0.04785716
Cu       7.50909005       2.50302998      11.76991004  F       0.02408346       0.02120436       0.16276863
Cu      10.01212003       2.50302998      11.76991004  F       0.04028361       0.02163614       0.18067593
Cu       0.00000000       5.00605995      11.76991004  F      -0.09464083       0.00264727       0.09355052
Cu       2.50302998       5.00605995      11.76991004  F       0.04834779       0.00118681       0.10640399
Cu       5.00605995       5.00605995      11.76991004  F      -0.06256951       0.00227483       0.09050546
Cu       7.50909005       5.00605995      11.76991004  F       0.05081569       0.00188127       0.22275181
Cu      10.01212003       5.00605995      11.76991004  F       0.02128684       0.00195886       0.29489026
Cu       0.00000000       7.50909005      11.76991004  F      -0.07708691      -0.04975854       0.12499274
Cu       2.50302998       7.50909005      11.76991004  F       0.02013789      -0.04217726       0.10392107
Cu       5.00605995       7.50909005      11.76991004  F      -0.04390178       0.06925375       0.05028372
Cu       7.50909005       7.50909005      11.76991004  F       0.02316449      -0.02411412       0.16404664
Cu      10.01212003       7.50909005      11.76991004  F       0.03970512      -0.02136607       0.18168580
Cu       0.00000000      10.01212003      11.76991004  F      -0.01836797      -0.04474422       0.10303487
Cu       2.50302998      10.01212003      11.76991004  F       0.02914055      -0.00638976       0.11719354
Cu       5.00605995      10.01212003      11.76991004  F       0.00774650      -0.06661525       0.07255668