109
Lattice="12.51515363 0.0 0.0 0.0 12.51515363 0.0 0.0 0.0 25.30973" Properties=species:S:1:pos:R:3:move_mask:L:1:forces:R:3 energy=-453.21109031000003 stress="0.008107380959980615 -0.00016549444459350836 0.0003853775557476915 -0.00016549444459350836 0.008140385860509993 0.00010916332677022172 0.0003853775557476915 0.00010916332677022172 0.0035047389576788415" free_energy=-453.21318781 pbc="T T T"
Cu       1.25151999       1.25151999      10.00000011  F      -0.01567576      -0.02449593      -0.07669605
Cu       3.75454997       1.25151999      10.00000011  F       0.00805780       0.00324544      -0.07891907
Cu       6.25757994       1.25151999      10.00000011  F      -0.00392056       0.01014326      -0.04909635
Cu       8.76061004       1.25151999      10.00000011  F      -0.00062532       0.01488520      -0.04094168
Cu      11.26364002       1.25151999      10.00000011  F       0.00814546      -0.00524993      -0.04928204
Cu       1.25151999       3.75454997      10.00000011  F       0.00219750       0.00321194      -0.05973451
Cu       3.75454997       3.75454997      10.00000011  F       0.00729670      -0.01416832      -0.04917039
Cu       6.25757994       3.75454997      10.00000011  F      -0.00940457      -0.01290231      -0.08415803
Cu       8.76061004       3.75454997      10.00000011  F       0.00979936      -0.01713025      -0.08750616
Cu      11.26364002       3.75454997      10.00000011  F      -0.00776572       0.00459669      -0.06291477
Cu       1.25151999       6.25757994      10.00000011  F      -0.01731809      -0.00345695      -0.06954539
Cu       3.75454997       6.25757994      10.00000011  F       0.01396401       0.01383185      -0.07115776
Cu       6.25757994       6.25757994      10.00000011  F      -0.01131708       0.01932404      -0.06616306
Cu       8.76061004       6.25757994      10.00000011  F       0.00619203       0.01028671      -0.08968674
Cu      11.26364002       6.25757994      10.00000011  F       0.00850387      -0.00284600      -0.05279931
Cu       1.25151999       8.76061004      10.00000011  F      -0.01261026       0.00085946      -0.07101713
Cu       3.75454997       8.76061004      10.00000011  F       0.02265143      -0.00488731      -0.06443545
Cu       6.25757994       8.76061004      10.00000011  F      -0.01609064      -0.00685504      -0.06848206
Cu       8.76061004       8.76061004      10.00000011  F      -0.00084275       0.00513809      -0.03859759
Cu      11.26364002       8.76061004      10.00000011  F       0.00833751       0.00126078      -0.06722393
Cu       1.25151999      11.26364002      10.00000011  F      -0.02002477       0.02412279      -0.03962280
Cu       3.75454997      11.26364002      10.00000011  F       0.00568018       0.00401688      -0.05657027
Cu       6.25757994      11.26364002      10.00000011  F      -0.00683570      -0.00748911      -0.07796312
Cu       8.76061004      11.26364002      10.00000011  F      -0.01103554      -0.01545419      -0.06179819
Cu      11.26364002      11.26364002      10.00000011  F       0.03234552      -0.00033902      -0.06864009
Cu       0.00000000       0.00000000      11.76991004  F      -0.02525518       0.05840583       0.09163533
Cu       2.50302998       0.00000000      11.76991004  F      -0.00173181       0.04365763       0.14648543
Cu       5.00605995       0.00000000      11.76991004  F       0.01626085       0.00087727       0.06996523
Cu       7.50909005       0.00000000      11.76991004  F       0.03443324       0.03015142       0.11896797
Cu      10.01212003       0.00000000      11.76991004  F       0.00361219       0.15147812       0.18356174
Cu       0.00000000       2.50302998      11.76991004  F      -0.03647045       0.01190301       0.13195569
Cu       2.50302998       2.50302998      11.76991004  F       0.05060922       0.01612513       0.10212483
Cu       5.00605995       2.50302998      11.76991004  F      -0.00083917      -0.09618350       0.02446151
Cu       7.50909005       2.50302998      11.76991004  F       0.07281940       0.01638747       0.20600848
Cu      10.01212003       2.50302998      11.76991004  F      -0.02533671       0.03916551       0.27123041
Cu       0.00000000       5.00605995      11.76991004  F       0.00507810       0.00809763       0.08314032
Cu       2.50302998       5.00605995      11.76991004  F       0.08331992       0.00519837       0.12220931
Cu       5.00605995       5.00605995      11.76991004  F       0.00369356       0.00731479       0.10218168
Cu       7.50909005       5.00605995      11.76991004  F       0.04217053      -0.03166605       0.18847999
Cu      10.01212003       5.00605995      11.76991004  F       0.00741648      -0.01024431       0.18293582
Cu       0.00000000       7.50909005      11.76991004  F      -0.00300307       0.00335507       0.07270484
Cu       2.50302998       7.50909005      11.76991004  F       0.05878091      -0.06753694       0.15975317
Cu       5.00605995       7.50909005      11.76991004  F       0.00579685       0.06324011       0.05698881
Cu       7.50909005       7.50909005      11.76991004  F      -0.02218819       0.02488607       0.14115834
Cu      10.01212003       7.50909005      11.76991004  F       0.12915110       0.05754852       0.09753466
Cu       0.00000000      10.01212003      11.76991004  F      -0.04346379      -0.03692112       0.12280025
Cu       2.50302998      10.01212003      11.76991004  F       0.07068626      -0.03170272       0.10272981
Cu       5.00605995      10.01212003      11.76991004  F      -0.00507205      -0.12082561       0.12125271
Cu       7.50909005      10.01212003      11.76991004  F       0.04907380      -0.07667802       0.10908610
Cu      10.01212003      10.01212003      11.76991004  F      -0.06260748      -0.06268774       0.09684191
Cu       1.24351355       1.24170461      13.59160063  T       0.00323826      -0.02110580       0.00810295
Cu       3.78359827       1.25237503      13.60115531  T      -0.00568936      -0.01847156      -0.00533857
Cu       6.26673215       1.22881675      13.59927935  T       0.00870020      -0.01316344       0.00681474
Cu       8.77338226       1.29269360      13.63921406  T      -0.00642275      -0.01571181       0.00439306
Cu      11.26969447       1.29710957      13.63520575  T       0.00343552      -0.00885306      -0.01548772
Cu       1.25077722       3.74365640      13.58748932  T       0.00664907       0.00149249       0.00186195
Cu       3.78637688       3.74844357      13.59652211  T      -0.02099710      -0.00847579       0.01128265
Cu       6.25426831       3.73015055      13.57045106  T      -0.01114342      -0.00236503      -0.06199276
Cu       8.75503617       3.80283744      13.60956978  T       0.01026228       0.00249559      -0.12253982
Cu      11.27964502       3.77755482      13.60374601  T       0.01081049       0.00424229       0.00135200
Cu       1.26179869       6.24664996      13.58605654  T      -0.00771606      -0.00312206       0.00479554
Cu       3.80507827       6.27210203      13.60553086  T      -0.02375718       0.01809452      -0.00285584
Cu       6.29116649       6.23048989      13.57608298  T       0.00371848       0.00477861      -0.06243855
Cu       8.79230317       6.28203443      13.56914711  T      -0.00500972       0.01290712      -0.02877412
Cu      11.28631422       6.25561356      13.61598175  T       0.00375425      -0.01437557       0.00515138
Cu       1.26245010       8.76458473      13.58172199  T      -0.00123158       0.00771518      -0.00694836
Cu       3.77766220       8.75345601      13.62077617  T      -0.01997196       0.00039631      -0.01793117
Cu       6.26868451       8.70777632      13.62551795  T       0.00097671       0.01152768       0.00098430
Cu       8.75618081       8.75113007      13.61948689  T      -0.00973219       0.01377133      -0.00374664
Cu      11.25410547       8.76517883      13.60240865  T       0.00979480       0.02017552      -0.01196833
Cu       1.24994984      11.25415829      13.59844590  T      -0.00407925      -0.00947089      -0.00208633
Cu       3.74385539      11.26260051      13.59100990  T      -0.01432003       0.00506893       0.00210421
Cu       6.25147693      11.22847344      13.57559375  T       0.00354918       0.00273522       0.00126337
Cu       8.76372281      11.27236546      13.58358529  T      -0.00834483       0.00717028      -0.00981036
Cu      11.26388594      11.28276543      13.58094220  T       0.02576460      -0.00761628      -0.00333272
Cu      12.50785642      12.44216538      15.39303206  T       0.00064252       0.00919027      -0.07802081
Cu       2.50108537       0.01281627      15.39342689  T      -0.00098809       0.01180371      -0.07703256
Cu       5.00789192      12.47955052      15.38006386  T       0.01141226      -0.00036570      -0.05874711
Cu       7.50539608      12.41386774      15.37425730  T       0.00476925       0.01724347      -0.04369540
Cu      10.00931325       0.06073128      15.39076810  T      -0.01640384       0.03078612      -0.04043560
Cu       0.12219646       2.37361065      15.47546002  T      -0.00840694      -0.05736694      -0.07628365
Cu       2.55240764       2.49689430      15.33511555  T      -0.02786839       0.00780953      -0.04191120
Cu       4.96493553       2.41025602      15.51654986  T      -0.04666358      -0.06792826      -0.09827636
Cu       7.44374218       2.32656155      15.49367873  T      -0.01758390      -0.15395595      -0.10765920
Cu      10.16024500       2.55853731      15.58554039  T      -0.05433885      -0.03059718      -0.08188324
Cu       0.14031502       5.06300165      15.46873472  T      -0.00995147       0.06665357      -0.08154135
Cu       2.53875949       5.02333199      15.33832659  T      -0.03313601       0.00712997      -0.06147204
Pd       5.02416425       4.98368786      15.53615352  T      -0.00472225      -0.00713981      -0.07451294
Y        7.56281748       4.96463729      17.23450094  T      -0.05272880      -0.01677478       0.08150776
Cu      10.22136764       5.10530086      15.57435653  T       0.08237585       0.04246357      -0.09648289
Cu       0.04080140       7.52238853      15.36585447  T      -0.00772311      -0.02541825      -0.04429688
Cu       2.50776533       7.51474139      15.37925546  T      -0.01807715      -0.01959218      -0.05526699
Cu       4.98814814       7.57408450      15.51108727  T      -0.05641723       0.07316359      -0.10030752
Cu       7.52554397       7.45374003      15.47363266  T      -0.01837298       0.11238419      -0.14960473
Cu      10.09002235       7.63132268      15.45408925  T       0.03987760       0.05306020      -0.07788120
Cu      12.50213374       9.97874336      15.40143185  T      -0.00811712      -0.00642295      -0.10337364
Cu       2.49340419      10.01421581      15.39638509  T       0.01320425      -0.00046915      -0.08080361
Cu       4.99784801      10.03154968      15.39009663  T       0.01090893      -0.00129331      -0.06336482
Cu       7.50265601       9.97292194      15.37569084  T       0.00216533       0.00071963      -0.06182177
Cu      10.01553428      10.10109038      15.37763918  T      -0.02057176       0.00984312      -0.04808113
O        6.14260260       3.35096668      16.69894427  T      -0.09477294       0.00909659       0.13965765
O        6.14276993       6.56125552      16.66319453  T      -0.13308832      -0.01327565       0.12679792
O        8.96891376       6.49714289      16.47720825  T       0.13671644       0.07313905       0.12174185
O        8.56452812       3.90934803      15.59555849  T       0.03564364      -0.00077301      -0.00521671
C       11.12265018       3.76901824      16.92334033  T       0.51634760       0.06866138       0.54648648
O        0.00872719       3.70639003      16.94846986  T      -0.85468787       0.02528882       0.15238493
H       11.25249202       4.03110320      19.05633757  T      -0.21559681      -0.02440997      -0.20412102
C       10.51969348       4.00976349      18.21361923  T       0.01139872      -0.06988075      -0.23157993
O        9.27306116       4.20689318      18.49431781  T       0.47587750      -0.11560743      -0.12182961
109
Lattice="12.51515363 0.0 0.0 0.0 12.51515363 0.0 0.0 0.0 25.30973" Properties=species:S:1:pos:R:3:move_mask:L:1:forces:R:3 energy=-453.22406846 stress="0.00770889600413273 -0.00014303496694738439 0.0004206071922729182 -0.00014303496694738439 0.007925079672963856 9.676614799346347e-05 0.0004206071922729182 9.676614799346347e-05 0.0031791916845326624" free_energy=-453.22621528 pbc="T T T"
Cu       1.25151999       1.25151999      10.00000011  F      -0.01557092      -0.02433024      -0.07784250
Cu       3.75454997       1.25151999      10.00000011  F       0.00814317       0.00313204      -0.07949495
Cu       6.25757994       1.25151999      10.00000011  F      -0.00429187       0.01011825      -0.04946481
Cu       8.76061004       1.25151999      10.00000011  F      -0.00064433       0.01502624      -0.04169262
Cu      11.26364002       1.25151999      10.00000011  F       0.00839815      -0.00503839      -0.05043892
Cu       1.25151999       3.75454997      10.00000011  F       0.00214506       0.00314028      -0.05996592
Cu       3.75454997       3.75454997      10.00000011  F       0.00728060      -0.01419528      -0.04917342
Cu       6.25757994       3.75454997      10.00000011  F      -0.00945552      -0.01283558      -0.08435726
Cu       8.76061004       3.75454997      10.00000011  F       0.00981093      -0.01686339      -0.08826180
Cu      11.26364002       3.75454997      10.00000011  F      -0.00763209       0.00484330      -0.06335632
Cu       1.25151999       6.25757994      10.00000011  F      -0.01742007      -0.00361789      -0.06963376
Cu       3.75454997       6.25757994      10.00000011  F       0.01439264       0.01411098      -0.07107949
Cu       6.25757994       6.25757994      10.00000011  F      -0.01172533       0.01941102      -0.06616015
Cu       8.76061004       6.25757994      10.00000011  F       0.00628596       0.00994369      -0.08995051
Cu      11.26364002       6.25757994      10.00000011  F       0.00852009      -0.00313690      -0.05322456
Cu       1.25151999       8.76061004      10.00000011  F      -0.01249826       0.00146629      -0.07191630
Cu       3.75454997       8.76061004      10.00000011  F       0.02241082      -0.00508826      -0.06505702
Cu       6.25757994       8.76061004      10.00000011  F      -0.01618044      -0.00709503      -0.06895556
Cu       8.76061004       8.76061004      10.00000011  F      -0.00096168       0.00548017      -0.03895732
Cu      11.26364002       8.76061004      10.00000011  F       0.00863962       0.00143284      -0.06775868
Cu       1.25151999      11.26364002      10.00000011  F      -0.01979984       0.02347056      -0.04146900
Cu       3.75454997      11.26364002      10.00000011  F       0.00519688       0.00396804      -0.05768923
Cu       6.25757994      11.26364002      10.00000011  F      -0.00676419      -0.00754402      -0.07896173
Cu       8.76061004      11.26364002      10.00000011  F      -0.01121606      -0.01600554      -0.06289717
Cu      11.26364002      11.26364002      10.00000011  F       0.03263935      -0.00085682      -0.06976097
Cu       0.00000000       0.00000000      11.76991004  F      -0.02465558       0.05892538       0.09113682
Cu       2.50302998       0.00000000      11.76991004  F      -0.00199525       0.04351582       0.14597015
Cu       5.00605995       0.00000000      11.76991004  F       0.01612090       0.00016614       0.06926143
Cu       7.50909005       0.00000000      11.76991004  F       0.03402051       0.02979125       0.11806482
Cu      10.01212003       0.00000000      11.76991004  F       0.00385704       0.15158455       0.18335712
Cu       0.00000000       2.50302998      11.76991004  F      -0.03597330       0.01219641       0.13116243
Cu       2.50302998       2.50302998      11.76991004  F       0.05046782       0.01598958       0.10158290
Cu       5.00605995       2.50302998      11.76991004  F      -0.00172114      -0.09678780       0.02362357
Cu       7.50909005       2.50302998      11.76991004  F       0.07221064       0.01536661       0.20419052
Cu      10.01212003       2.50302998      11.76991004  F      -0.02437660       0.03870773       0.26959360
Cu       0.00000000       5.00605995      11.76991004  F       0.00533188       0.00807473       0.08178471
Cu       2.50302998       5.00605995      11.76991004  F       0.08327488       0.00523205       0.12158107
Cu       5.00605995       5.00605995      11.76991004  F       0.00210072       0.00754590       0.10110893
Cu       7.50909005       5.00605995      11.76991004  F       0.04172842      -0.03092215       0.18532256
Cu      10.01212003       5.00605995      11.76991004  F       0.00898178      -0.00938540       0.18029886
Cu       0.00000000       7.50909005      11.76991004  F      -0.00277873       0.00244293       0.07269871
Cu       2.50302998       7.50909005      11.76991004  F       0.05835478      -0.06786997       0.15906711
Cu       5.00605995       7.50909005      11.76991004  F       0.00542824       0.06386665       0.05547152
Cu       7.50909005       7.50909005      11.76991004  F      -0.02249152       0.02559813       0.13928898
Cu      10.01212003       7.50909005      11.76991004  F       0.12970417       0.05728063       0.09694683
Cu       0.00000000      10.01212003      11.76991004  F      -0.04305155      -0.03709737       0.12094276
Cu       2.50302998      10.01212003      11.76991004  F       0.07073621      -0.03152766       0.10143460
Cu       5.00605995      10.01212003      11.76991004  F      -0.00555715      -0.12064829       0.12105666
Cu       7.50909005      10.01212003      11.76991004  F       0.04876298      -0.07666218       0.10819059
Cu      10.01212003      10.01212003      11.76991004  F      -0.06230936      -0.06276500       0.09621527
Cu       1.24354471       1.24150086      13.59167884  T       0.00392886      -0.01884498       0.00444743
Cu       3.78354345       1.25219669      13.60110368  T      -0.00506136      -0.01747541      -0.00906051
Cu       6.26681613       1.22868973      13.59934516  T       0.00606020      -0.01306424       0.00142675
Cu       8.77332031       1.29254191      13.63925632  T      -0.00603354      -0.01489766      -0.00110531
Cu      11.26972764       1.29702409      13.63505617  T       0.00189462      -0.00762936      -0.01688330
Cu       1.25084142       3.74367080      13.58750729  T       0.00506330       0.00054461       0.00186204
Cu       3.78617426       3.74836173      13.59663094  T      -0.01908303      -0.00804199       0.00765911
Cu       6.25416080       3.73012777      13.56985299  T      -0.01089449      -0.00248359      -0.05739445
Cu       8.75513516       3.80286147      13.60838731  T       0.00856352       0.00210413      -0.11222845
Cu      11.27974927       3.77759575      13.60375892  T       0.01039578       0.00337596       0.00293447
Cu       1.26172422       6.24661992      13.58610285  T      -0.00663675      -0.00240143       0.00034236
Cu       3.80484900       6.27227661      13.60550327  T      -0.02131456       0.01663360      -0.00560285
Cu       6.29120240       6.23053595      13.57548061  T       0.00220568       0.00455600      -0.05820257
Cu       8.79225486       6.28215895      13.56886946  T      -0.00528943       0.01220113      -0.02734540
Cu      11.28635039       6.25547489      13.61603136  T       0.00248469      -0.01249428       0.00071516
Cu       1.26243821       8.76465907      13.58165517  T      -0.00131963       0.00599491      -0.00924720
Cu       3.77746947       8.75345976      13.62060305  T      -0.01922529       0.00086153      -0.02040367
Cu       6.26869403       8.70788758      13.62552757  T      -0.00047027       0.01114319      -0.00345059
Cu       8.75608682       8.75126298      13.61945070  T      -0.00813530       0.01333364      -0.00741074
Cu      11.25419996       8.76537356      13.60229323  T       0.00926704       0.01822283      -0.01523826
Cu       1.24991042      11.25406693      13.59842565  T      -0.00317117      -0.00927680      -0.00523465
Cu       3.74371723      11.26264944      13.59103015  T      -0.01298072       0.00458747      -0.00061347
Cu       6.25151122      11.22849985      13.57560590  T       0.00274362       0.00253045      -0.00178748
Cu       8.76364222      11.27243467      13.58349064  T      -0.00692866       0.00692605      -0.01145702
Cu      11.26413462      11.28269196      13.58091006  T       0.02270748      -0.00678186      -0.00559897
Cu      12.50786268      12.44225411      15.39227909  T      -0.00016710       0.00785732      -0.07257502
Cu       2.50107573       0.01293016      15.39268379  T      -0.00073755       0.01148114      -0.07245610
Cu       5.00800205      12.47954702      15.37949692  T       0.01090216      -0.00227226      -0.05587132
Cu       7.50544213      12.41403407      15.37383564  T       0.00469266       0.01108976      -0.04089041
Cu      10.00915494       0.06102827      15.39037782  T      -0.01410712       0.02931732      -0.03721572
Cu       0.12211536       2.37305710      15.47472402  T      -0.01062808      -0.05271749      -0.07936893
Cu       2.55213869       2.49696964      15.33471110  T      -0.02958499       0.00894044      -0.03921988
Cu       4.96448536       2.40960060      15.51560151  T      -0.03540944      -0.05572695      -0.08647136
Cu       7.44357260       2.32507613      15.49264002  T      -0.01781998      -0.12920815      -0.09397032
Cu      10.15972074       2.55824220      15.58475022  T      -0.04875017      -0.00988571      -0.06914594
Cu       0.14021903       5.06364480      15.46794784  T      -0.00699476       0.06403957      -0.08733074
Cu       2.53843973       5.02340070      15.33773359  T      -0.03180327       0.00489313      -0.05728244
Pd       5.02411869       4.98361903      15.53543447  T       0.00067381      -0.00606380      -0.06439552
Y        7.56230874       4.96447547      17.23528731  T      -0.04668248      -0.00881298       0.06678695
Cu      10.22216235       5.10571061      15.57342564  T       0.06837436       0.03238733      -0.08768364
Cu       0.04072681       7.52214336      15.36542724  T      -0.00656521      -0.02255452      -0.04139549
Cu       2.50759100       7.51455241      15.37872219  T      -0.01924328      -0.01862221      -0.05229586
Cu       4.98760373       7.57479048      15.51011942  T      -0.04651218       0.06078372      -0.08869136
Cu       7.52536663       7.45482447      15.47218925  T      -0.01662017       0.09305167      -0.12783233
Cu      10.09040719       7.63183467      15.45333780  T       0.03355456       0.04623150      -0.07029614
Cu      12.50205540       9.97868141      15.40043439  T      -0.00745242      -0.00650915      -0.09837499
Cu       2.49353160      10.01421118      15.39560530  T       0.01279435      -0.00088431      -0.07703786
Cu       4.99795326      10.03153729      15.38948515  T       0.01028173       0.00046514      -0.06084835
Cu       7.50267691       9.97292895      15.37509454  T       0.00173086       0.00362106      -0.05827170
Cu      10.01533579      10.10118537      15.37717526  T      -0.01952241       0.01112337      -0.04596190
O        6.14168824       3.35105441      16.70029176  T      -0.08980097       0.00434862       0.12555904
O        6.14148575       6.56112736      16.66441775  T      -0.12342713      -0.01021944       0.11126492
O        8.97023286       6.49784862      16.47838288  T       0.12284194       0.06673598       0.11566300
O        8.56487204       3.90934052      15.59550838  T       0.04135594      -0.00429954       0.00339176
C       11.12763221       3.76968066      16.92861311  T       0.28767854       0.04137542       0.33545523
O        0.00048071       3.70663408      16.94994010  T      -0.56733006       0.01094002       0.16748035
H       11.25041188       4.03086767      19.05436822  T      -0.17158611      -0.02835812      -0.16788453
C       10.51980336       4.00908930      18.21138489  T       0.11833899      -0.06286984      -0.09510399
O        9.27765272       4.20577770      18.49314217  T       0.24288095      -0.08085697      -0.11068442
109
Lattice="12.51515363 0.0 0.0 0.0 12.51515363 0.0 0.0 0.0 25.30973" Properties=species:S:1:pos:R:3:move_mask:L:1:forces:R:3 energy=-453.24167947000007 stress="0.007504149513801219 -0.00011345359658864398 0.0004603300724933409 -0.00011345359658864398 0.00798501455701681 7.474270217487373e-05 0.0004603300724933409 7.474270217487373e-05 0.003073259811731239" free_energy=-453.24389961 pbc="T T T"
Cu       1.25151999       1.25151999      10.00000011  F      -0.01524351      -0.02388002      -0.07791244
Cu       3.75454997       1.25151999      10.00000011  F       0.00900271       0.00306817      -0.07960435
Cu       6.25757994       1.25151999      10.00000011  F      -0.00469425       0.01008138      -0.04899809
Cu       8.76061004       1.25151999      10.00000011  F      -0.00111119       0.01532680      -0.04154486
Cu      11.26364002       1.25151999      10.00000011  F       0.00806573      -0.00461660      -0.05057022
Cu       1.25151999       3.75454997      10.00000011  F       0.00208515       0.00301436      -0.06014288
Cu       3.75454997       3.75454997      10.00000011  F       0.00778596      -0.01435549      -0.04905635
Cu       6.25757994       3.75454997      10.00000011  F      -0.00940728      -0.01293719      -0.08412215
Cu       8.76061004       3.75454997      10.00000011  F       0.00952283      -0.01669511      -0.08860818
Cu      11.26364002       3.75454997      10.00000011  F      -0.00784210       0.00514207      -0.06340769
Cu       1.25151999       6.25757994      10.00000011  F      -0.01747597      -0.00400917      -0.06980196
Cu       3.75454997       6.25757994      10.00000011  F       0.01566721       0.01467819      -0.07086272
Cu       6.25757994       6.25757994      10.00000011  F      -0.01232178       0.01961551      -0.06577130
Cu       8.76061004       6.25757994      10.00000011  F       0.00599120       0.00929241      -0.08970102
Cu      11.26364002       6.25757994      10.00000011  F       0.00820187      -0.00372925      -0.05343073
Cu       1.25151999       8.76061004      10.00000011  F      -0.01216336       0.00250016      -0.07202743
Cu       3.75454997       8.76061004      10.00000011  F       0.02266782      -0.00544289      -0.06532003
Cu       6.25757994       8.76061004      10.00000011  F      -0.01624206      -0.00736325      -0.06888375
Cu       8.76061004       8.76061004      10.00000011  F      -0.00163076       0.00625232      -0.03837057
Cu      11.26364002       8.76061004      10.00000011  F       0.00868962       0.00194866      -0.06749774
Cu       1.25151999      11.26364002      10.00000011  F      -0.01937566       0.02249483      -0.04162300
Cu       3.75454997      11.26364002      10.00000011  F       0.00507534       0.00403387      -0.05732543
Cu       6.25757994      11.26364002      10.00000011  F      -0.00647673      -0.00738322      -0.07888605
Cu       8.76061004      11.26364002      10.00000011  F      -0.01184135      -0.01665927      -0.06234779
Cu      11.26364002      11.26364002      10.00000011  F       0.03259399      -0.00157979      -0.06935491
Cu       0.00000000       0.00000000      11.76991004  F      -0.02421983       0.05974054       0.09095205
Cu       2.50302998       0.00000000      11.76991004  F      -0.00195409       0.04312569       0.14556075
Cu       5.00605995       0.00000000      11.76991004  F       0.01680491      -0.00124598       0.06848554
Cu       7.50909005       0.00000000      11.76991004  F       0.03335696       0.02928367       0.11684629
Cu      10.01212003       0.00000000      11.76991004  F       0.00340004       0.15155849       0.18346261
Cu       0.00000000       2.50302998      11.76991004  F      -0.03562102       0.01233573       0.13052555
Cu       2.50302998       2.50302998      11.76991004  F       0.05066515       0.01547429       0.10137670
Cu       5.00605995       2.50302998      11.76991004  F      -0.00265282      -0.09842006       0.02258739
Cu       7.50909005       2.50302998      11.76991004  F       0.07109894       0.01259159       0.20114709
Cu      10.01212003       2.50302998      11.76991004  F      -0.02327918       0.03733346       0.26708311
Cu       0.00000000       5.00605995      11.76991004  F       0.00534916       0.00796966       0.07998988
Cu       2.50302998       5.00605995      11.76991004  F       0.08361251       0.00521412       0.12130776
Cu       5.00605995       5.00605995      11.76991004  F      -0.00050247       0.00772076       0.09974219
Cu       7.50909005       5.00605995      11.76991004  F       0.04097136      -0.02959530       0.17961194
Cu      10.01212003       5.00605995      11.76991004  F       0.01137892      -0.00779561       0.17590798
Cu       0.00000000       7.50909005      11.76991004  F      -0.00301097       0.00128665       0.07338088
Cu       2.50302998       7.50909005      11.76991004  F       0.05789599      -0.06798519       0.15819879
Cu       5.00605995       7.50909005      11.76991004  F       0.00521862       0.06542157       0.05325332
Cu       7.50909005       7.50909005      11.76991004  F      -0.02271565       0.02750796       0.13642177
Cu      10.01212003       7.50909005      11.76991004  F       0.13005941       0.05744544       0.09676355
Cu       0.00000000      10.01212003      11.76991004  F      -0.04270463      -0.03723581       0.11805152
Cu       2.50302998      10.01212003      11.76991004  F       0.07118965      -0.03108371       0.09983071
Cu       5.00605995      10.01212003      11.76991004  F      -0.00554781      -0.11977429       0.12131299