109
Lattice="12.51515363 0.0 0.0 0.0 12.51515363 0.0 0.0 0.0 25.30973" Properties=species:S:1:pos:R:3:move_mask:L:1:forces:R:3 energy=-453.35543636999995 stress="0.007952775570796796 4.5330732615318916e-05 -0.0002372275722074998 4.5330732615318916e-05 0.008584814845901415 -1.809718705389812e-05 -0.0002372275722074998 -1.809718705389812e-05 0.003504280443935436" free_energy=-453.35867253 pbc="T T T"
Cu       1.25151999       1.25151999      10.00000011  F       0.01068166      -0.02148824      -0.07015848
Cu       3.75454997       1.25151999      10.00000011  F      -0.00837491       0.00223606      -0.05065446
Cu       6.25757994       1.25151999      10.00000011  F       0.00498224       0.02270032      -0.04903281
Cu       8.76061004       1.25151999      10.00000011  F      -0.00041595       0.00790056      -0.04365501
Cu      11.26364002       1.25151999      10.00000011  F      -0.00485569      -0.00472663      -0.08218494
Cu       1.25151999       3.75454997      10.00000011  F      -0.00111783       0.00610805      -0.07192631
Cu       3.75454997       3.75454997      10.00000011  F       0.00890469      -0.00142829      -0.05562090
Cu       6.25757994       3.75454997      10.00000011  F      -0.00674494      -0.02233054      -0.09669198
Cu       8.76061004       3.75454997      10.00000011  F       0.00500830      -0.01644805      -0.08145883
Cu      11.26364002       3.75454997      10.00000011  F      -0.00746035       0.00016635      -0.04435348
Cu       1.25151999       6.25757994      10.00000011  F       0.01413553      -0.00325153      -0.07908139
Cu       3.75454997       6.25757994      10.00000011  F      -0.00204699       0.00413465      -0.05496638
Cu       6.25757994       6.25757994      10.00000011  F      -0.00514755       0.01464305      -0.09300493
Cu       8.76061004       6.25757994      10.00000011  F       0.00459816       0.02188009      -0.05805057
Cu      11.26364002       6.25757994      10.00000011  F      -0.01253145       0.00294615      -0.06613766
Cu       1.25151999       8.76061004      10.00000011  F       0.01239587       0.00327060      -0.07357160
Cu       3.75454997       8.76061004      10.00000011  F      -0.00954323      -0.00369605      -0.07173859
Cu       6.25757994       8.76061004      10.00000011  F      -0.00099731      -0.00242435      -0.04065535
Cu       8.76061004       8.76061004      10.00000011  F       0.01427452      -0.00611678      -0.07139791
Cu      11.26364002       8.76061004      10.00000011  F      -0.01921234       0.00217766      -0.06316351
Cu       1.25151999      11.26364002      10.00000011  F       0.01055435       0.01551831      -0.02987256
Cu       3.75454997      11.26364002      10.00000011  F      -0.01721638      -0.00602140      -0.06769945
Cu       6.25757994      11.26364002      10.00000011  F       0.00637596      -0.01497926      -0.06654521
Cu       8.76061004      11.26364002      10.00000011  F      -0.00372984      -0.00845034      -0.07867195
Cu      11.26364002      11.26364002      10.00000011  F       0.00468674       0.00332640      -0.05781978
Cu       0.00000000       0.00000000      11.76991004  F       0.01273349       0.05404383       0.17445317
Cu       2.50302998       0.00000000      11.76991004  F       0.03701209       0.03689623       0.10800535
Cu       5.00605995       0.00000000      11.76991004  F       0.01608966       0.15829561       0.20529625
Cu       7.50909005       0.00000000      11.76991004  F      -0.00872732       0.02284356       0.13235832
Cu      10.01212003       0.00000000      11.76991004  F      -0.00120722      -0.00365324       0.10015751
Cu       0.00000000       2.50302998      11.76991004  F      -0.06422449       0.02603239       0.12250398
Cu       2.50302998       2.50302998      11.76991004  F       0.02377565       0.02605089       0.13669304
Cu       5.00605995       2.50302998      11.76991004  F       0.05070924       0.03358927       0.30242958
Cu       7.50909005       2.50302998      11.76991004  F      -0.11906574      -0.00247091       0.19741393
Cu      10.01212003       2.50302998      11.76991004  F       0.04317920      -0.12343083       0.00200994
Cu       0.00000000       5.00605995      11.76991004  F      -0.09965317       0.00029672       0.09248536
Cu       2.50302998       5.00605995      11.76991004  F      -0.04591848      -0.02580541       0.08209260
Cu       5.00605995       5.00605995      11.76991004  F       0.01521934      -0.05413098       0.25429448
Cu       7.50909005       5.00605995      11.76991004  F      -0.13517156      -0.04426448       0.18199820
Cu      10.01212003       5.00605995      11.76991004  F       0.00001721       0.00746319       0.03840259
Cu       0.00000000       7.50909005      11.76991004  F      -0.03635761      -0.07147137       0.17741421
Cu       2.50302998       7.50909005      11.76991004  F      -0.05285197       0.03390076       0.04062689
Cu       5.00605995       7.50909005      11.76991004  F      -0.05686210       0.07683908       0.06787988
Cu       7.50909005       7.50909005      11.76991004  F       0.02321755       0.05598312       0.10422005
Cu      10.01212003       7.50909005      11.76991004  F       0.02004468       0.10029945       0.03657283
Cu       0.00000000      10.01212003      11.76991004  F      -0.04043935      -0.05351663       0.14969246
Cu       2.50302998      10.01212003      11.76991004  F       0.06458952      -0.04008361       0.13642228
Cu       5.00605995      10.01212003      11.76991004  F       0.06746344      -0.09148686       0.10027611
Cu       7.50909005      10.01212003      11.76991004  F      -0.01193015      -0.08344655       0.12838700
Cu      10.01212003      10.01212003      11.76991004  F       0.01625724      -0.13163798       0.15180577
Cu       1.27801407       1.24722980      13.59534394  T      -0.00591612      -0.02748667       0.00651762
Cu       3.76853515       1.28557573      13.63518930  T      -0.00372067      -0.00322731      -0.01655434
Cu       6.27069557       1.28879400      13.64414464  T      -0.00041296      -0.01424281      -0.00409745
Cu       8.77213550       1.23480751      13.59856410  T      -0.00135634      -0.01605035      -0.00235050
Cu      11.25683816       1.25545175      13.60528839  T       0.00517944      -0.01118769      -0.00317637
Cu       1.22413020       3.75759879      13.59523941  T      -0.00152338      -0.00301166      -0.00299469
Cu       3.71244123       3.76231863      13.60654729  T      -0.02330416       0.00545669      -0.00300173
Cu       6.25857515       3.80532007      13.63659298  T      -0.00200676       0.01298391      -0.03705597
Cu       8.74986528       3.73518715      13.55029996  T       0.01904417      -0.00454816      -0.05903083
Cu      11.20189300       3.75690632      13.60175743  T       0.00227352      -0.00486114      -0.00217667
Cu       1.22342285       6.23810949      13.59791718  T       0.00176802      -0.00661931       0.00038674
Cu       3.71843224       6.27079056      13.57291497  T      -0.01203379       0.00524650      -0.02280262
Cu       6.22841300       6.27992187      13.58114189  T      -0.00387002       0.00310027      -0.03206675
Cu       8.72190968       6.23295475      13.55961445  T      -0.00077111      -0.00722876      -0.04853661
Cu      11.19519765       6.25977060      13.60194168  T       0.00976461       0.01606926      -0.00696237
Cu       1.27069596       8.75549735      13.58954928  T      -0.00295976       0.01182432      -0.00398858
Cu       3.79492936       8.75751717      13.61532117  T      -0.01025342       0.01874715      -0.01350813
Cu       6.28936556       8.74201490      13.62400569  T       0.00300171       0.02212697      -0.01008996
Cu       8.77261583       8.70447883      13.63315693  T       0.00863863       0.01480994      -0.00319199
Cu      11.26864470       8.74204306      13.62613652  T       0.01641482       0.00898750      -0.01620593
Cu       1.25091351      11.25351451      13.60302089  T      -0.01111641      -0.00717473       0.00016219
Cu       3.75200689      11.27275994      13.58247774  T      -0.02539916      -0.00164038      -0.00566574
Cu       6.25542020      11.26404038      13.58074504  T       0.00129606       0.02169094      -0.00981888
Cu       8.76796532      11.22961607      13.58249242  T      -0.01277707       0.00656792      -0.00241224
Cu      11.27170040      11.25965056      13.59497644  T       0.02022576       0.00243906       0.00137591
Cu       0.00305157       0.00453687      15.39745569  T      -0.01200610       0.00897600      -0.08912567
Cu       2.51269405      12.46484910      15.39157801  T       0.00485920      -0.00585750      -0.08020805
Cu       5.01008270       0.02109717      15.39059751  T       0.01163672       0.04541329      -0.04634043
Cu       7.51327674      12.42478721      15.37362506  T      -0.01163604       0.00836109      -0.05172726
Cu      10.00919961      12.50058461      15.38171430  T      -0.00299864      -0.00393884      -0.05918187
Cu       0.00929338       2.50010030      15.33976368  T       0.02142215       0.01231663      -0.04263674
Cu       2.44096633       2.41815333      15.46561024  T       0.00111879      -0.05532257      -0.06036369
Cu       4.92315807       2.48117289      15.57754960  T      -0.02386522       0.00212270      -0.02187265
Cu       7.65102203       2.35350280      15.48753125  T       0.03165582      -0.12281150      -0.08558373
Cu      10.11853525       2.46519491      15.49924636  T       0.04387703      -0.05276373      -0.09270265
Cu      12.28283496       5.01408392      15.36890353  T       0.02066716      -0.00523257      -0.04625663
Cu       2.14671792       5.06274922      15.53718615  T      -0.01772008       0.03383484      -0.06239101
Pd       4.63931902       5.08458691      15.63291160  T      -0.02975153       0.13016996      -0.06755275
Y        7.43166155       4.98565687      17.27571657  T       0.00680595       0.01460137       0.09122925
Cu       9.82787982       4.98217753      15.46941277  T       0.09519128      -0.03257262      -0.13599708
Cu       0.07353942       7.49278306      15.39122848  T       0.01671825      -0.02005216      -0.05458156
Cu       2.55141581       7.48781592      15.37642103  T       0.01793282      -0.03908518      -0.03576218
Cu       5.01867660       7.63163380      15.49140237  T      -0.03841644       0.06874317      -0.08885427
Cu       7.56269483       7.44103327      15.48956944  T       0.03190244       0.11677258      -0.15237445
Cu      10.10997801       7.52821571      15.49594344  T       0.05643410       0.06076092      -0.09039468
Cu       0.01117353       9.99958647      15.39919447  T      -0.01516439       0.00283857      -0.08011452
Cu       2.51399225       9.97809570      15.40060295  T       0.01011515      -0.01602067      -0.09674845
Cu       5.00649310      10.08733435      15.37790165  T       0.01611292       0.02701311      -0.03598186
Cu       7.51441087       9.97626824      15.37926711  T      -0.00449840      -0.00085735      -0.05815543
Cu      10.02372746      10.02096298      15.38881950  T      -0.00980886       0.00819112      -0.06658863
O        6.44418239       3.85301544      15.70629084  T      -0.03015660       0.06182060      -0.06974143
O        6.16331506       6.65321098      16.65280666  T      -0.14106930      -0.00174953       0.10300003
O        8.97633162       6.42478252      16.57658514  T       0.10029235       0.06654296       0.11847322
O        8.96256633       3.50570666      16.61255558  T       0.05863664      -0.07162239       0.11439386
C        3.91372045       3.78990903      17.03618857  T      -0.34662019      -0.13965325       0.49417846
O        2.55439429       3.73164674      17.03733308  T       0.79506294      -0.02270997       0.10575222
H        4.03015718       3.12476791      19.08499958  T       0.17505952       0.12301752      -0.18964708
C        4.62232018       3.63509195      18.28931431  T      -0.08645318       0.00075539      -0.25711553
O        5.83014427       3.99769663      18.55809225  T      -0.43062431      -0.14755551      -0.11755861
109
Lattice="12.51515363 0.0 0.0 0.0 12.51515363 0.0 0.0 0.0 25.30973" Properties=species:S:1:pos:R:3:move_mask:L:1:forces:R:3 energy=-453.37095085 stress="0.0077341638176025 2.5233497652595386e-05 -0.00028172535670544223 2.5233497652595386e-05 0.008541575162397976 -2.0621053616113287e-05 -0.00028172535670544223 -2.0621053616113287e-05 0.0033651651634436335" free_energy=-453.3742054 pbc="T T T"
Cu       1.25151999       1.25151999      10.00000011  F       0.01036186      -0.02134194      -0.07046804
Cu       3.75454997       1.25151999      10.00000011  F      -0.00827649       0.00235641      -0.05110656
Cu       6.25757994       1.25151999      10.00000011  F       0.00522355       0.02265406      -0.04946453
Cu       8.76061004       1.25151999      10.00000011  F       0.00016708       0.00770166      -0.04390495
Cu      11.26364002       1.25151999      10.00000011  F      -0.00525617      -0.00524162      -0.08258228
Cu       1.25151999       3.75454997      10.00000011  F      -0.00120269       0.00611422      -0.07234071
Cu       3.75454997       3.75454997      10.00000011  F       0.00880086      -0.00135861      -0.05614509
Cu       6.25757994       3.75454997      10.00000011  F      -0.00652041      -0.02222663      -0.09727099
Cu       8.76061004       3.75454997      10.00000011  F       0.00533454      -0.01641194      -0.08172707
Cu      11.26364002       3.75454997      10.00000011  F      -0.00760564       0.00017940      -0.04463408
Cu       1.25151999       6.25757994      10.00000011  F       0.01402101      -0.00343301      -0.07935509
Cu       3.75454997       6.25757994      10.00000011  F      -0.00189431       0.00416917      -0.05530260
Cu       6.25757994       6.25757994      10.00000011  F      -0.00508171       0.01464076      -0.09321848
Cu       8.76061004       6.25757994      10.00000011  F       0.00517943       0.02209395      -0.05813885
Cu      11.26364002       6.25757994      10.00000011  F      -0.01304195       0.00323588      -0.06611513
Cu       1.25151999       8.76061004      10.00000011  F       0.01208694       0.00396392      -0.07299212
Cu       3.75454997       8.76061004      10.00000011  F      -0.00932100      -0.00349997      -0.07177922
Cu       6.25757994       8.76061004      10.00000011  F      -0.00073880      -0.00197185      -0.04082803
Cu       8.76061004       8.76061004      10.00000011  F       0.01447979      -0.00602435      -0.07122181
Cu      11.26364002       8.76061004      10.00000011  F      -0.01939933       0.00256505      -0.06321130
Cu       1.25151999      11.26364002      10.00000011  F       0.00978460       0.01511024      -0.03002057
Cu       3.75454997      11.26364002      10.00000011  F      -0.01721978      -0.00635188      -0.06743438
Cu       6.25757994      11.26364002      10.00000011  F       0.00679754      -0.01532856      -0.06648094
Cu       8.76061004      11.26364002      10.00000011  F      -0.00324801      -0.00843625      -0.07874014
Cu      11.26364002      11.26364002      10.00000011  F       0.00479753       0.00336047      -0.06033150
Cu       0.00000000       0.00000000      11.76991004  F       0.01211306       0.05341564       0.17325952
Cu       2.50302998       0.00000000      11.76991004  F       0.03661294       0.03691634       0.10770401
Cu       5.00605995       0.00000000      11.76991004  F       0.01614005       0.15814865       0.20478074
Cu       7.50909005       0.00000000      11.76991004  F      -0.00821037       0.02257757       0.13121457
Cu      10.01212003       0.00000000      11.76991004  F      -0.00082578      -0.00459724       0.09915100
Cu       0.00000000       2.50302998      11.76991004  F      -0.06436309       0.02587569       0.12224748
Cu       2.50302998       2.50302998      11.76991004  F       0.02324927       0.02575128       0.13575813
Cu       5.00605995       2.50302998      11.76991004  F       0.05088106       0.03373347       0.30185089
Cu       7.50909005       2.50302998      11.76991004  F      -0.11895434      -0.00317019       0.19624406
Cu      10.01212003       2.50302998      11.76991004  F       0.04370625      -0.12432081       0.00064939
Cu       0.00000000       5.00605995      11.76991004  F      -0.09987815       0.00054139       0.09195142
Cu       2.50302998       5.00605995      11.76991004  F      -0.04633334      -0.02554091       0.08090091
Cu       5.00605995       5.00605995      11.76991004  F       0.01485414      -0.05406355       0.25277538
Cu       7.50909005       5.00605995      11.76991004  F      -0.13537468      -0.04398130       0.17994503
Cu      10.01212003       5.00605995      11.76991004  F       0.00106741       0.00799935       0.03682315
Cu       0.00000000       7.50909005      11.76991004  F      -0.03645940      -0.07141313       0.17705964
Cu       2.50302998       7.50909005      11.76991004  F      -0.05324049       0.03391593       0.04048047
Cu       5.00605995       7.50909005      11.76991004  F      -0.05656325       0.07722544       0.06702189
Cu       7.50909005       7.50909005      11.76991004  F       0.02339128       0.05664271       0.10333361
Cu      10.01212003       7.50909005      11.76991004  F       0.02024995       0.10117526       0.03525285
Cu       0.00000000      10.01212003      11.76991004  F      -0.04089980      -0.05310091       0.14818511
Cu       2.50302998      10.01212003      11.76991004  F       0.06419693      -0.03997358       0.13524152
Cu       5.00605995      10.01212003      11.76991004  F       0.06752168      -0.09121585       0.09984302
Cu       7.50909005      10.01212003      11.76991004  F      -0.01124118      -0.08307278       0.12740912
Cu      10.01212003      10.01212003      11.76991004  F       0.01648661      -0.13116469       0.15143542
Cu       1.27795700       1.24696460      13.59540671  T      -0.00665529      -0.02576303       0.00290056
Cu       3.76849923       1.28554457      13.63502935  T      -0.00218714      -0.00233441      -0.01764342
Cu       6.27069169       1.28865658      13.64410491  T      -0.00016052      -0.01258964      -0.00715648
Cu       8.77212236       1.23465270      13.59854157  T       0.00021514      -0.01599667      -0.00687999
Cu      11.25688822       1.25534375      13.60525776  T       0.00481154      -0.01069401      -0.00713105
Cu       1.22411556       3.75756975      13.59521031  T      -0.00064559      -0.00319026      -0.00258612
Cu       3.71221634       3.76237131      13.60651819  T      -0.02157062       0.00582141      -0.00032911
Cu       6.25855575       3.80544534      13.63623535  T      -0.00174314       0.01182680      -0.03402427
Cu       8.75004901       3.73514322      13.54973049  T       0.01734712      -0.00510294      -0.05542984
Cu      11.20191491       3.75685939      13.60173642  T       0.00248610      -0.00457596      -0.00543906
Cu       1.22343987       6.23804567      13.59792073  T       0.00085339      -0.00538463      -0.00316576
Cu       3.71831622       6.27084125      13.57269502  T      -0.01121446       0.00640124      -0.02567039
Cu       6.22837571       6.27995178      13.58083236  T      -0.00310343       0.00434100      -0.03024854
Cu       8.72190218       6.23288492      13.55914597  T      -0.00002494      -0.00614921      -0.04548481
Cu      11.19529189       6.25992566      13.60187461  T       0.00864219       0.01547822      -0.00961403
Cu       1.27066743       8.75561137      13.58951081  T      -0.00273329       0.00987170      -0.00596467
Cu       3.79483037       8.75769814      13.61519082  T      -0.00962436       0.01766569      -0.01569106
Cu       6.28939447       8.74222841      13.62390825  T       0.00263945       0.02143219      -0.01261915
Cu       8.77269918       8.70462175      13.63312605  T       0.00928465       0.01445381      -0.00719152
Cu      11.26880302       8.74212979      13.62598010  T       0.01611128       0.00876509      -0.01867198
Cu       1.25080625      11.25344530      13.60302241  T      -0.01056699      -0.00739023      -0.00295421
Cu       3.75176184      11.27274417      13.58242307  T      -0.02263125      -0.00152962      -0.00751156
Cu       6.25543272      11.26424963      13.58065013  T       0.00042055       0.02034080      -0.01148779
Cu       8.76784205      11.22967952      13.58246914  T      -0.01155191       0.00591890      -0.00492917
Cu      11.27189564      11.25967409      13.59498961  T       0.01768990       0.00209228      -0.00180491
Cu       0.00293568       0.00462347      15.39659567  T      -0.01135364       0.00892098      -0.08415161
Cu       2.51274098      12.46479253      15.39080404  T       0.00492907      -0.00645371      -0.07540416
Cu       5.01019508       0.02153533      15.39015054  T       0.01026272       0.04409359      -0.04366317
Cu       7.51316448      12.42486794      15.37312595  T      -0.01126321       0.00446793      -0.04910552
Cu      10.00917070      12.50054657      15.38114332  T      -0.00359662      -0.00522952      -0.05693506
Cu       0.00950000       2.50021920      15.33935240  T       0.02331500       0.01310227      -0.03975962
Cu       2.44097709       2.41761956      15.46502786  T      -0.00041910      -0.05628770      -0.07087659
Cu       4.92292779       2.48119341      15.57733877  T      -0.01517549       0.00848787      -0.02590021
Cu       7.65132752       2.35231786      15.48670564  T       0.02686223      -0.10196755      -0.07540275
Cu      10.11895864       2.46468580      15.49835192  T       0.03471052      -0.04490714      -0.08337667
Cu      12.28303432       5.01403348      15.36845732  T       0.02335187      -0.00609454      -0.04362835
Cu       2.14654696       5.06307561      15.53658429  T      -0.01657111       0.03004130      -0.06700750
Pd       4.63903192       5.08584293      15.63225988  T      -0.02892035       0.09105097      -0.03434889
Y        7.43172725       4.98579779      17.27659684  T       0.00885868       0.01496549       0.06993617
Cu       9.82879831       4.98186328      15.46810046  T       0.08067021      -0.02761162      -0.11966490
Cu       0.07370061       7.49258957      15.39070179  T       0.01782257      -0.01889089      -0.05198246
Cu       2.55158890       7.48743883      15.37607605  T       0.01683774      -0.03697102      -0.03380291
Cu       5.01830590       7.63229711      15.49054513  T      -0.02938798       0.06298031      -0.07937084
Cu       7.56300258       7.44215988      15.48809920  T       0.02444447       0.09867065      -0.13116390
Cu      10.11052255       7.52880204      15.49507127  T       0.04782312       0.05187415      -0.08087359
Cu       0.01102723       9.99961388      15.39842151  T      -0.01453505       0.00214282      -0.07626009
Cu       2.51408987       9.97794114      15.39966953  T       0.00939564      -0.01612893      -0.09245630
Cu       5.00664866      10.08759491      15.37755465  T       0.01574684       0.02803735      -0.03487872
Cu       7.51436757       9.97625998      15.37870599  T      -0.00423919       0.00145520      -0.05575321
Cu      10.02363284      10.02104195      15.38817689  T      -0.00975776       0.00910195      -0.06434999
O        6.44389141       3.85361192      15.70561810  T      -0.02767767       0.05568374      -0.05927756
O        6.16195391       6.65319409      16.65380057  T      -0.12969145      -0.00017187       0.08959728
O        8.97729929       6.42542455      16.57772813  T       0.09109329       0.06059936       0.10285207
O        8.96313201       3.50501570      16.61365934  T       0.05359461      -0.06760506       0.10300043
C        3.91037615       3.78856153      17.04095667  T      -0.11800955      -0.07150485       0.30108030
O        2.56206546       3.73142760      17.03835357  T       0.47765576      -0.03174319       0.12145556
H        4.03184623       3.12595485      19.08316994  T       0.13425092       0.09226469      -0.15858501
C        4.62148592       3.63509921      18.28683345  T      -0.13449117      -0.05574503      -0.13013347
O        5.82598936       3.99627290      18.55695812  T      -0.23897953      -0.07915892      -0.10878432
109
Lattice="12.51515363 0.0 0.0 0.0 12.51515363 0.0 0.0 0.0 25.30973" Properties=species:S:1:pos:R:3:move_mask:L:1:forces:R:3 energy=-453.3815523 stress="0.007526704392914333 6.611755447230654e-07 -0.0003421228052412235 6.611755447230654e-07 0.00854779431443817 -2.3624717467853343e-05 -0.0003421228052412235 -2.3624717467853343e-05 0.00324953932195089" free_energy=-453.38483774 pbc="T T T"
Cu       1.25151999       1.25151999      10.00000011  F       0.01030748      -0.02088321      -0.07042613
Cu       3.75454997       1.25151999      10.00000011  F      -0.00811318       0.00289019      -0.05085111
Cu       6.25757994       1.25151999      10.00000011  F       0.00504426       0.02313195      -0.04946488
Cu       8.76061004       1.25151999      10.00000011  F       0.00061316       0.00777790      -0.04391571
Cu      11.26364002       1.25151999      10.00000011  F      -0.00551305      -0.00543377      -0.08270390
Cu       1.25151999       3.75454997      10.00000011  F      -0.00074107       0.00599850      -0.07221373
Cu       3.75454997       3.75454997      10.00000011  F       0.00885540      -0.00122039      -0.05583347
Cu       6.25757994       3.75454997      10.00000011  F      -0.00675356      -0.02196524      -0.09718078
Cu       8.76061004       3.75454997      10.00000011  F       0.00517241      -0.01634916      -0.08183225
Cu      11.26364002       3.75454997      10.00000011  F      -0.00761586       0.00011317      -0.04480677
Cu       1.25151999       6.25757994      10.00000011  F       0.01444516      -0.00365286      -0.07946682
Cu       3.75454997       6.25757994      10.00000011  F      -0.00158468       0.00389397      -0.05503661
Cu       6.25757994       6.25757994      10.00000011  F      -0.00545770       0.01419248      -0.09304752
Cu       8.76061004       6.25757994      10.00000011  F       0.00538744       0.02208510      -0.05834585
Cu      11.26364002       6.25757994      10.00000011  F      -0.01354635       0.00354990      -0.06625494
Cu       1.25151999       8.76061004      10.00000011  F       0.01206922       0.00470660      -0.07297643
Cu       3.75454997       8.76061004      10.00000011  F      -0.00923610      -0.00346414      -0.07166492
Cu       6.25757994       8.76061004      10.00000011  F      -0.00083856      -0.00175424      -0.04101941
Cu       8.76061004       8.76061004      10.00000011  F       0.01447536      -0.00611195      -0.07131990
Cu      11.26364002       8.76061004      10.00000011  F      -0.01926571       0.00262745      -0.06361735
Cu       1.25151999      11.26364002      10.00000011  F       0.00950859       0.01465007      -0.02987815
Cu       3.75454997      11.26364002      10.00000011  F      -0.01724607      -0.00656878      -0.06731527
Cu       6.25757994      11.26364002      10.00000011  F       0.00677977      -0.01551705      -0.06645477
Cu       8.76061004      11.26364002      10.00000011  F      -0.00309248      -0.00817014      -0.07911609
Cu      11.26364002      11.26364002      10.00000011  F       0.00516265       0.00360575      -0.06032982
Cu       0.00000000       0.00000000      11.76991004  F       0.01189500       0.05300998       0.17159061
Cu       2.50302998       0.00000000      11.76991004  F       0.03632649       0.03753699       0.10728582
Cu       5.00605995       0.00000000      11.76991004  F       0.01545823       0.15865746       0.20383873
Cu       7.50909005       0.00000000      11.76991004  F      -0.00804772       0.02308940       0.12941386
Cu      10.01212003       0.00000000      11.76991004  F      -0.00021332      -0.00546816       0.09800426
Cu       0.00000000       2.50302998      11.76991004  F      -0.06372665       0.02563936       0.12225285
Cu       2.50302998       2.50302998      11.76991004  F       0.02284813       0.02548556       0.13466070
Cu       5.00605995       2.50302998      11.76991004  F       0.05064811       0.03468374       0.30124490
Cu       7.50909005       2.50302998      11.76991004  F      -0.11991318      -0.00403798       0.19439504
Cu      10.01212003       2.50302998      11.76991004  F       0.04466168      -0.12591977      -0.00149297
Cu       0.00000000       5.00605995      11.76991004  F      -0.09943403       0.00041264       0.09135606
Cu       2.50302998       5.00605995      11.76991004  F      -0.04647248      -0.02573201       0.07894473
Cu       5.00605995       5.00605995      11.76991004  F       0.01368623      -0.05469572       0.25027020
Cu       7.50909005       5.00605995      11.76991004  F      -0.13688654      -0.04416588       0.17597316
Cu      10.01212003       5.00605995      11.76991004  F       0.00290355       0.00839310       0.03406390
Cu       0.00000000       7.50909005      11.76991004  F      -0.03564458      -0.07139159       0.17620043
Cu       2.50302998       7.50909005      11.76991004  F      -0.05376459       0.03389530       0.03965107
Cu       5.00605995       7.50909005      11.76991004  F      -0.05669177       0.07746028       0.06543007
Cu       7.50909005       7.50909005      11.76991004  F       0.02273328       0.05724572       0.10147320
Cu      10.01212003       7.50909005      11.76991004  F       0.02069244       0.10233797       0.03293807
Cu       0.00000000      10.01212003      11.76991004  F      -0.04071496      -0.05251992       0.14597819
Cu       2.50302998      10.01212003      11.76991004  F       0.06366784      -0.03980645       0.13323297
Cu       5.00605995      10.01212003      11.76991004  F       0.06707771      -0.09054265       0.09909059