109
Lattice="12.51515363 0.0 0.0 0.0 12.51515363 0.0 0.0 0.0 25.30973" Properties=species:S:1:pos:R:3:move_mask:L:1:forces:R:3 energy=-453.17562701 stress="0.008480232044090005 9.445516682451394e-05 0.0002856899445776759 9.445516682451394e-05 0.008851017413373055 0.0001521485751541432 0.0002856899445776759 0.0001521485751541432 0.0034353214237090434" free_energy=-453.1768705 pbc="T T T"
Cu       1.25151999       1.25151999      10.00000011  F      -0.00651236      -0.02435831      -0.06530016
Cu       3.75454997       1.25151999      10.00000011  F       0.00767692       0.00329094      -0.07193993
Cu       6.25757994       1.25151999      10.00000011  F      -0.01463925       0.01217267      -0.06152310
Cu       8.76061004       1.25151999      10.00000011  F       0.00524792       0.00724299      -0.04730083
Cu      11.26364002       1.25151999      10.00000011  F       0.00717351      -0.00721709      -0.06212124
Cu       1.25151999       3.75454997      10.00000011  F      -0.00736619       0.00911388      -0.06332540
Cu       3.75454997       3.75454997      10.00000011  F       0.02145918      -0.01925240      -0.04856142
Cu       6.25757994       3.75454997      10.00000011  F      -0.02830840      -0.01928313      -0.07389764
Cu       8.76061004       3.75454997      10.00000011  F       0.02136255      -0.01334222      -0.08634702
Cu      11.26364002       3.75454997      10.00000011  F      -0.00313644       0.00827117      -0.04812810
Cu       1.25151999       6.25757994      10.00000011  F      -0.00925018      -0.00624359      -0.07561877
Cu       3.75454997       6.25757994      10.00000011  F       0.01727014       0.01822840      -0.05103855
Cu       6.25757994       6.25757994      10.00000011  F      -0.02222347       0.02028735      -0.07663721
Cu       8.76061004       6.25757994      10.00000011  F       0.01881348       0.01623100      -0.07963045
Cu      11.26364002       6.25757994      10.00000011  F      -0.00315917      -0.00755062      -0.06777287
Cu       1.25151999       8.76061004      10.00000011  F      -0.00053235       0.00284572      -0.06624901
Cu       3.75454997       8.76061004      10.00000011  F       0.00414760      -0.01311875      -0.06264264
Cu       6.25757994       8.76061004      10.00000011  F      -0.00296138      -0.01044811      -0.06407870
Cu       8.76061004       8.76061004      10.00000011  F       0.00662946      -0.00172282      -0.03925107
Cu      11.26364002       8.76061004      10.00000011  F      -0.00803070      -0.00155300      -0.06952611
Cu       1.25151999      11.26364002      10.00000011  F      -0.00510086       0.01755919      -0.02136986
Cu       3.75454997      11.26364002      10.00000011  F      -0.00389124       0.00936808      -0.07364044
Cu       6.25757994      11.26364002      10.00000011  F       0.00318825       0.00052927      -0.07049802
Cu       8.76061004      11.26364002      10.00000011  F      -0.01447784      -0.00860289      -0.05791498
Cu      11.26364002      11.26364002      10.00000011  F       0.01828221       0.00552197      -0.07012970
Cu       0.00000000       0.00000000      11.76991004  F       0.02166382       0.09296568       0.15758244
Cu       2.50302998       0.00000000      11.76991004  F       0.00196244       0.08412712       0.17259453
Cu       5.00605995       0.00000000      11.76991004  F       0.00442236       0.08132719       0.14235935
Cu       7.50909005       0.00000000      11.76991004  F       0.03535513       0.03354550       0.09815758
Cu      10.01212003       0.00000000      11.76991004  F       0.02372660       0.11678468       0.15596395
Cu       0.00000000       2.50302998      11.76991004  F      -0.04422585       0.03180552       0.14518212
Cu       2.50302998       2.50302998      11.76991004  F       0.03420957       0.00849983       0.16846558
Cu       5.00605995       2.50302998      11.76991004  F       0.00197735      -0.07574209       0.08461562
Cu       7.50909005       2.50302998      11.76991004  F       0.00151319      -0.02637900       0.10015695
Cu      10.01212003       2.50302998      11.76991004  F       0.12654350      -0.05481315       0.08483592
Cu       0.00000000       5.00605995      11.76991004  F      -0.06146934       0.00120752       0.11961600
Cu       2.50302998       5.00605995      11.76991004  F       0.05529638       0.00169799       0.16402718
Cu       5.00605995       5.00605995      11.76991004  F      -0.01670207       0.03447956       0.12815773
Cu       7.50909005       5.00605995      11.76991004  F      -0.02976041       0.00103025       0.12717082
Cu      10.01212003       5.00605995      11.76991004  F       0.06325244      -0.01686371       0.08401050
Cu       0.00000000       7.50909005      11.76991004  F      -0.06819633      -0.01562280       0.13599966
Cu       2.50302998       7.50909005      11.76991004  F       0.08168191       0.00423073       0.12328093
Cu       5.00605995       7.50909005      11.76991004  F      -0.01804149       0.03091688       0.12207938
Cu       7.50909005       7.50909005      11.76991004  F      -0.02961998       0.00291319       0.14085593
Cu      10.01212003       7.50909005      11.76991004  F       0.04127275       0.06902586       0.07940525
Cu       0.00000000      10.01212003      11.76991004  F      -0.00857909      -0.00293680       0.14696577
Cu       2.50302998      10.01212003      11.76991004  F       0.04369312      -0.00165366       0.13471517
Cu       5.00605995      10.01212003      11.76991004  F       0.03356264      -0.10610765       0.13190791
Cu       7.50909005      10.01212003      11.76991004  F       0.00920482      -0.08595324       0.11520838
Cu      10.01212003      10.01212003      11.76991004  F      -0.04754068      -0.09846265       0.13843163
Cu       1.26933957       1.28672500      13.63136829  T       0.00463720      -0.01913066      -0.01001876
Cu       3.77163791       1.27682013      13.62830151  T      -0.00912145      -0.00577430      -0.01907000
Cu       6.29165320       1.25626674      13.60092702  T      -0.00498582      -0.00722759       0.00562522
Cu       8.77870157       1.27065767      13.61207089  T      -0.01232668      -0.01361992      -0.00314887
Cu      11.29527532       1.28353901      13.63534015  T      -0.00248982      -0.01249037      -0.01623327
Cu       1.24440788       3.75027930      13.59594960  T      -0.00286790      -0.01173573      -0.00743110
Cu       3.77336024       3.75360445      13.59076389  T      -0.01497304       0.00179714      -0.00834828
Cu       6.28429804       3.75410543      13.57497923  T      -0.00110969       0.00274372      -0.04517916
Cu       8.76253675       3.76488498      13.56122187  T      -0.01071525       0.00325118      -0.04104977
Cu      11.25453725       3.76318342      13.62793579  T       0.00414422      -0.00060023       0.00724984
Cu       1.25573710       6.26540179      13.57792123  T       0.00540728      -0.00139616       0.00564784
Cu       3.76296841       6.26052651      13.61987514  T      -0.02710055      -0.00010625      -0.01133196
Cu       6.26978097       6.24046259      13.58633773  T      -0.00034904      -0.00088326      -0.04361970
Cu       8.74202829       6.24606400      13.56960547  T       0.00137166       0.00170217      -0.04174182
Cu      11.22671231       6.25673154      13.60317072  T       0.00595307      -0.00596219       0.00440005
Cu       1.26222796       8.78712515      13.58472018  T       0.00111430       0.01308992      -0.00311545
Cu       3.78158708       8.75404197      13.61854183  T      -0.01664969       0.00547802      -0.01865707
Cu       6.28137863       8.72153623      13.62877151  T      -0.00005482       0.01674899      -0.00570464
Cu       8.75744959       8.72741448      13.62763485  T      -0.00119442       0.01682020      -0.00267659
Cu      11.25619100       8.75587268      13.61154521  T       0.01560916       0.00751422      -0.01300750
Cu       1.25231333      11.29004186      13.61197522  T      -0.00354086      -0.00971058      -0.01688530
Cu       3.74181668      11.26842406      13.58610665  T      -0.01363468       0.00300996      -0.00059060
Cu       6.25319926      11.24830896      13.57697642  T      -0.00417151       0.00628216       0.00199188
Cu       8.76082230      11.25660475      13.58327095  T      -0.00337507       0.00529565      -0.00836830
Cu      11.26819929      11.27263754      13.58496569  T       0.02463760      -0.00628931      -0.00401158
Cu       0.00024868      12.50724943      15.40289171  T      -0.00880412      -0.00101069      -0.08842183
Cu       2.50956852       0.04748637      15.40998603  T       0.01289628       0.02182598      -0.07779286
Cu       5.00035129      12.46442733      15.37353597  T       0.00974897       0.01096889      -0.04392389
Cu       7.50590982      12.48899696      15.36536801  T      -0.00428864       0.01081910      -0.07053260
Cu      10.01454972      12.49709063      15.37569185  T      -0.00448118       0.01373245      -0.06327274
Cu       0.05311168       2.50908481      15.49621173  T      -0.01706231      -0.01321923      -0.08868386
Cu       2.61088757       2.57765533      15.48099501  T      -0.01086295      -0.01491964      -0.03604486
Cu       5.07840455       2.38937974      15.44331110  T      -0.04812384      -0.07422622      -0.09637186
Cu       7.59251982       2.49467699      15.47232972  T       0.06854131      -0.08132908      -0.11977882
Cu      10.07944029       2.45633706      15.44148095  T       0.03402313      -0.05966097      -0.09349075
Cu      12.47900474       5.07321889      15.34443839  T       0.01855034       0.01156605      -0.06684837
Cu       2.40523243       5.02736562      15.42671627  T      -0.03329656       0.00694287      -0.02622631
Pd       5.00337420       4.98977248      15.49687155  T       0.01675547      -0.00627960      -0.06949353
Y        7.49569921       4.99518215      17.25536805  T      -0.04272339      -0.01718334       0.07915287
Cu       9.98499118       5.01234719      15.46852060  T       0.11054907       0.01569671      -0.16387215
Cu       0.05170248       7.53717230      15.37183490  T       0.01189915      -0.01477655      -0.04956105
Cu       2.51222561       7.53302541      15.37416036  T      -0.01046513      -0.01854499      -0.04633703
Cu       4.99474775       7.57008065      15.49334439  T      -0.04797119       0.07458579      -0.08879364
Cu       7.54711259       7.49198334      15.49974015  T       0.01525620       0.07640149      -0.13121760
Cu      10.09538872       7.55194507      15.46299878  T       0.04963817       0.06234884      -0.07788739
Cu      12.51262932      10.01782643      15.39863841  T      -0.01257066      -0.01890972      -0.09376354
Cu       2.50233413      10.03940869      15.40340499  T       0.01526209      -0.01241398      -0.09581965
Cu       5.00033902      10.02605853      15.38152372  T       0.01347077      -0.00395155      -0.05343944
Cu       7.50663833      10.02308530      15.37595938  T      -0.00379538      -0.00691646      -0.07024883
Cu      10.01583565      10.03352682      15.38150980  T      -0.00781746      -0.01703006      -0.06445155
O        6.22760352       3.38512316      16.61376994  T      -0.15373530       0.07748400       0.14522502
O        6.15556955       6.58706902      16.67093298  T      -0.09553081      -0.01607705       0.12514985
O        8.97623150       6.42860415      16.53937275  T       0.07227813       0.09088387       0.10965809
O        9.03164059       3.61127849      16.54424538  T       0.02795434      -0.12205582       0.10846693
C        2.50322696       3.84764381      17.13950188  T      -0.35504178      -0.03232681       0.35332977
O        3.51032989       4.27645866      17.76247102  T      -0.24061552      -0.08815857      -0.11369323
H        1.25456869       3.93249906      18.97742158  T      -0.04467678      -0.10160494      -0.27366036
C        1.22861401       3.60747864      17.90878733  T       0.28558520       0.06498434      -0.03510532
O        0.19738975       3.04058936      17.46442921  T       0.18837594       0.08555570       0.04572237
109
Lattice="12.51515363 0.0 0.0 0.0 12.51515363 0.0 0.0 0.0 25.30973" Properties=species:S:1:pos:R:3:move_mask:L:1:forces:R:3 energy=-453.1802416 stress="0.008431143891773359 7.050835003671027e-05 0.0002834088789619667 7.050835003671027e-05 0.00886180419541421 0.00014363493825361905 0.0002834088789619667 0.00014363493825361905 0.0034212917220468285" free_energy=-453.18151688 pbc="T T T"
Cu       1.25151999       1.25151999      10.00000011  F      -0.00612634      -0.02469698      -0.06504207
Cu       3.75454997       1.25151999      10.00000011  F       0.00772126       0.00308319      -0.07231921
Cu       6.25757994       1.25151999      10.00000011  F      -0.01484090       0.01203227      -0.06198517
Cu       8.76061004       1.25151999      10.00000011  F       0.00514085       0.00707909      -0.04786511
Cu      11.26364002       1.25151999      10.00000011  F       0.00732993      -0.00759170      -0.06144227
Cu       1.25151999       3.75454997      10.00000011  F      -0.00711484       0.00919060      -0.06384143
Cu       3.75454997       3.75454997      10.00000011  F       0.02150824      -0.01915904      -0.04897142
Cu       6.25757994       3.75454997      10.00000011  F      -0.02856686      -0.01917753      -0.07441597
Cu       8.76061004       3.75454997      10.00000011  F       0.02144842      -0.01327747      -0.08700635
Cu      11.26364002       3.75454997      10.00000011  F      -0.00300701       0.00854617      -0.04876404
Cu       1.25151999       6.25757994      10.00000011  F      -0.00912986      -0.00581998      -0.07581920
Cu       3.75454997       6.25757994      10.00000011  F       0.01725248       0.01835880      -0.05138030
Cu       6.25757994       6.25757994      10.00000011  F      -0.02243880       0.02033682      -0.07717089
Cu       8.76061004       6.25757994      10.00000011  F       0.01887816       0.01640796      -0.08019744
Cu      11.26364002       6.25757994      10.00000011  F      -0.00283371      -0.00737361      -0.06810947
Cu       1.25151999       8.76061004      10.00000011  F      -0.00042407       0.00301245      -0.06649186
Cu       3.75454997       8.76061004      10.00000011  F       0.00392262      -0.01302091      -0.06290984
Cu       6.25757994       8.76061004      10.00000011  F      -0.00291522      -0.01038987      -0.06456336
Cu       8.76061004       8.76061004      10.00000011  F       0.00654621      -0.00154893      -0.03989183
Cu      11.26364002       8.76061004      10.00000011  F      -0.00759812      -0.00129825      -0.06932287
Cu       1.25151999      11.26364002      10.00000011  F      -0.00504458       0.01717017      -0.02244745
Cu       3.75454997      11.26364002      10.00000011  F      -0.00410601       0.00921860      -0.07392923
Cu       6.25757994      11.26364002      10.00000011  F       0.00304013       0.00038964      -0.07109856
Cu       8.76061004      11.26364002      10.00000011  F      -0.01425554      -0.00893077      -0.05867608
Cu      11.26364002      11.26364002      10.00000011  F       0.01864520       0.00516520      -0.07117834
Cu       0.00000000       0.00000000      11.76991004  F       0.02197926       0.09261599       0.15660483
Cu       2.50302998       0.00000000      11.76991004  F       0.00188326       0.08386603       0.17176827
Cu       5.00605995       0.00000000      11.76991004  F       0.00417930       0.08092880       0.14174343
Cu       7.50909005       0.00000000      11.76991004  F       0.03509618       0.03340525       0.09737966
Cu      10.01212003       0.00000000      11.76991004  F       0.02416490       0.11638730       0.15561593
Cu       0.00000000       2.50302998      11.76991004  F      -0.04376678       0.03185386       0.14539757
Cu       2.50302998       2.50302998      11.76991004  F       0.03396243       0.00844209       0.16775185
Cu       5.00605995       2.50302998      11.76991004  F       0.00134693      -0.07599932       0.08399180
Cu       7.50909005       2.50302998      11.76991004  F       0.00129602      -0.02723006       0.09890592
Cu      10.01212003       2.50302998      11.76991004  F       0.12705300      -0.05510036       0.08457003
Cu       0.00000000       5.00605995      11.76991004  F      -0.06103999       0.00128852       0.11962315
Cu       2.50302998       5.00605995      11.76991004  F       0.05491352       0.00167060       0.16337619
Cu       5.00605995       5.00605995      11.76991004  F      -0.01769566       0.03461884       0.12701169
Cu       7.50909005       5.00605995      11.76991004  F      -0.02991913       0.00123737       0.12503401
Cu      10.01212003       5.00605995      11.76991004  F       0.06430954      -0.01677501       0.08287520
Cu       0.00000000       7.50909005      11.76991004  F      -0.06772572      -0.01562082       0.13548096
Cu       2.50302998       7.50909005      11.76991004  F       0.08109842       0.00434669       0.12247332
Cu       5.00605995       7.50909005      11.76991004  F      -0.01877812       0.03126934       0.12153300
Cu       7.50909005       7.50909005      11.76991004  F      -0.02956868       0.00375980       0.13956208
Cu      10.01212003       7.50909005      11.76991004  F       0.04223108       0.06944992       0.07893423
Cu       0.00000000      10.01212003      11.76991004  F      -0.00815100      -0.00312977       0.14538403
Cu       2.50302998      10.01212003      11.76991004  F       0.04360296      -0.00158521       0.13347367
Cu       5.00605995      10.01212003      11.76991004  F       0.03302061      -0.10583504       0.13140290
Cu       7.50909005      10.01212003      11.76991004  F       0.00928650      -0.08582824       0.11452137
Cu      10.01212003      10.01212003      11.76991004  F      -0.04711650      -0.09838968       0.13771066
Cu       1.26938425       1.28654040      13.63127161  T       0.00418147      -0.01806398      -0.01264041
Cu       3.77154993       1.27676444      13.62811751  T      -0.00935546      -0.00562014      -0.02167508
Cu       6.29160514       1.25619703      13.60098143  T      -0.00489618      -0.00672448       0.00171524
Cu       8.77858268       1.27052626      13.61204052  T      -0.01079268      -0.01347836      -0.00809225
Cu      11.29525129       1.28341849      13.63518373  T      -0.00141482      -0.01242634      -0.01979855
Cu       1.24438022       3.75016604      13.59587798  T      -0.00108367      -0.01150499      -0.00733642
Cu       3.77321582       3.75362184      13.59068341  T      -0.01545969       0.00150780      -0.00694170
Cu       6.28428728       3.75413196      13.57454339  T      -0.00156565       0.00170568      -0.04187851
Cu       8.76243338       3.76491640      13.56082577  T      -0.00970596       0.00307281      -0.03820199
Cu      11.25457730       3.76317767      13.62800564  T       0.00460105      -0.00173782       0.00295383
Cu       1.25578916       6.26538827      13.57797565  T       0.00514561      -0.00093047       0.00224547
Cu       3.76270697       6.26052551      13.61976581  T      -0.02525171      -0.00076946      -0.01162405
Cu       6.26977759       6.24045396      13.58591683  T      -0.00086072       0.00043564      -0.04110799
Cu       8.74204156       6.24608039      13.56920279  T       0.00148113       0.00219013      -0.03885550
Cu      11.22676975       6.25667397      13.60321324  T       0.00697312      -0.00421255       0.00014534
Cu       1.26223872       8.78725143      13.58469032  T       0.00132649       0.01101548      -0.00568086
Cu       3.78142651       8.75409478      13.61836188  T      -0.01616396       0.00541475      -0.02107870
Cu       6.28137813       8.72169780      13.62871634  T      -0.00097209       0.01568489      -0.00911820
Cu       8.75743808       8.72757667      13.62760904  T      -0.00007998       0.01610909      -0.00678275
Cu      11.25634156       8.75594515      13.61141967  T       0.01539782       0.00680589      -0.01639645
Cu       1.25227916      11.28994825      13.61181222  T      -0.00259985      -0.00886638      -0.01828405
Cu       3.74168514      11.26845310      13.58610083  T      -0.01242866       0.00313213      -0.00274304
Cu       6.25315909      11.24836953      13.57699565  T      -0.00473442       0.00598628      -0.00100845
Cu       8.76078976      11.25665581      13.58319021  T      -0.00216312       0.00485891      -0.01026240
Cu      11.26843708      11.27257684      13.58492696  T       0.02229523      -0.00609473      -0.00642261
Cu       0.00016370      12.50723967      15.40203852  T      -0.00779285      -0.00123650      -0.08436035
Cu       2.50969292       0.04769700      15.40923560  T       0.01217459       0.01957159      -0.07456569
Cu       5.00044540      12.46453309      15.37311203  T       0.00891402       0.00816534      -0.04215323
Cu       7.50586840      12.48910134      15.36468744  T      -0.00431207       0.00833010      -0.06677201
Cu      10.01450654      12.49722317      15.37508138  T      -0.00408564       0.01027484      -0.06085482
Cu       0.05294698       2.50895728      15.49535600  T      -0.01200759      -0.00783841      -0.07133660
Cu       2.61078269       2.57751141      15.48064725  T      -0.01696112      -0.01012497      -0.03068377
Cu       5.07794023       2.38866362      15.44238147  T      -0.03520875      -0.05849651      -0.08238529
Cu       7.59318112       2.49389229      15.47117407  T       0.05316443      -0.06349848      -0.09978214
Cu      10.07976856       2.45576137      15.44057891  T       0.02776627      -0.04798742      -0.08179126
Cu      12.47918370       5.07333053      15.34379349  T       0.02065912       0.00790670      -0.06157575
Cu       2.40491117       5.02743258      15.42646317  T      -0.03174647       0.00049642      -0.02023955
Pd       5.00353589       4.98971191      15.49620110  T       0.01647257      -0.00470126      -0.05689775
Y        7.49528696       4.99501633      17.25613190  T      -0.02885622      -0.01387464       0.06802554
Cu       9.98605772       5.01249862      15.46693950  T       0.09100375       0.01238622      -0.14146668
Cu       0.05181737       7.53702976      15.37135680  T       0.01242940      -0.01389843      -0.04811423
Cu       2.51212461       7.53284644      15.37371339  T      -0.01084723      -0.01759014      -0.04460349
Cu       4.99428494       7.57080027      15.49248765  T      -0.03723478       0.06127074      -0.07738206
Cu       7.54725989       7.49272048      15.49847391  T       0.01192827       0.06097860      -0.11377036
Cu      10.09586755       7.55254667      15.46224733  T       0.04067160       0.05239009      -0.06789447
Cu      12.51250805      10.01764396      15.39773384  T      -0.01141722      -0.01808525      -0.08961498
Cu       2.50248131      10.03928892      15.40248043  T       0.01452011      -0.01181311      -0.09183054
Cu       5.00046906      10.02602036      15.38100816  T       0.01259941      -0.00158214      -0.05163274
Cu       7.50660179      10.02301860      15.37528158  T      -0.00361572      -0.00450277      -0.06689137
Cu      10.01576018      10.03336250      15.38088794  T      -0.00733631      -0.01356976      -0.06231442
O        6.22612023       3.38587069      16.61517109  T      -0.15219649       0.06507650       0.12448299
O        6.15464781       6.58691396      16.67214050  T      -0.09553639      -0.01004571       0.10884967
O        8.97692884       6.42948109      16.54043069  T       0.07148956       0.08674219       0.09597011
O        9.03191029       3.61010082      16.54529193  T       0.02935516      -0.11668979       0.09301284
C        2.49980132       3.84733181      17.14291110  T      -0.30992240      -0.03987347       0.22079351
O        3.50800833       4.27560800      17.76137409  T      -0.15831049      -0.05241242      -0.06354364
H        1.25413754       3.93151875      18.97478102  T      -0.03013694      -0.07491341      -0.20238503
C        1.23136947       3.60810565      17.90844868  T       0.17446696       0.02717206      -0.02703133
O        0.19920720       3.04141486      17.46487035  T       0.15934218       0.06713062       0.01232301
109
Lattice="12.51515363 0.0 0.0 0.0 12.51515363 0.0 0.0 0.0 25.30973" Properties=species:S:1:pos:R:3:move_mask:L:1:forces:R:3 energy=-453.19153595 stress="0.008225755362364105 1.266243043159003e-05 0.0002913446707061075 1.266243043159003e-05 0.00879606953256074 0.00012894457909193828 0.0002913446707061075 0.00012894457909193828 0.003255660482297808" free_energy=-453.19290087 pbc="T T T"
Cu       1.25151999       1.25151999      10.00000011  F      -0.00616198      -0.02455371      -0.06528668
Cu       3.75454997       1.25151999      10.00000011  F       0.00766200       0.00311829      -0.07253938
Cu       6.25757994       1.25151999      10.00000011  F      -0.01484302       0.01194883      -0.06172357
Cu       8.76061004       1.25151999      10.00000011  F       0.00514431       0.00711962      -0.04784528
Cu      11.26364002       1.25151999      10.00000011  F       0.00708700      -0.00759794      -0.06162399
Cu       1.25151999       3.75454997      10.00000011  F      -0.00718963       0.00935037      -0.06402098
Cu       3.75454997       3.75454997      10.00000011  F       0.02147287      -0.01881891      -0.04892487
Cu       6.25757994       3.75454997      10.00000011  F      -0.02884342      -0.01891467      -0.07433805
Cu       8.76061004       3.75454997      10.00000011  F       0.02166592      -0.01309781      -0.08711212
Cu      11.26364002       3.75454997      10.00000011  F      -0.00326518       0.00894158      -0.04875158
Cu       1.25151999       6.25757994      10.00000011  F      -0.00931405      -0.00585836      -0.07537588
Cu       3.75454997       6.25757994      10.00000011  F       0.01721488       0.01811780      -0.05117660
Cu       6.25757994       6.25757994      10.00000011  F      -0.02254054       0.02030936      -0.07698973
Cu       8.76061004       6.25757994      10.00000011  F       0.01877007       0.01630023      -0.08001047
Cu      11.26364002       6.25757994      10.00000011  F      -0.00276622      -0.00792277      -0.06763042
Cu       1.25151999       8.76061004      10.00000011  F      -0.00053183       0.00270910      -0.06643103
Cu       3.75454997       8.76061004      10.00000011  F       0.00390804      -0.01314130      -0.06255504
Cu       6.25757994       8.76061004      10.00000011  F      -0.00248074      -0.01050296      -0.06392108
Cu       8.76061004       8.76061004      10.00000011  F       0.00585689      -0.00149112      -0.03957344
Cu      11.26364002       8.76061004      10.00000011  F      -0.00761625      -0.00119467      -0.06885016
Cu       1.25151999      11.26364002      10.00000011  F      -0.00524128       0.01700329      -0.02257905
Cu       3.75454997      11.26364002      10.00000011  F      -0.00395113       0.00901440      -0.07358893
Cu       6.25757994      11.26364002      10.00000011  F       0.00302169       0.00012147      -0.07093823
Cu       8.76061004      11.26364002      10.00000011  F      -0.01425837      -0.00937039      -0.05854663
Cu      11.26364002      11.26364002      10.00000011  F       0.01829889       0.00508214      -0.07116671
Cu       0.00000000       0.00000000      11.76991004  F       0.02160427       0.09232236       0.15313703
Cu       2.50302998       0.00000000      11.76991004  F       0.00193205       0.08345658       0.16874999
Cu       5.00605995       0.00000000      11.76991004  F       0.00459353       0.08011702       0.13990542
Cu       7.50909005       0.00000000      11.76991004  F       0.03428371       0.03287920       0.09490320
Cu      10.01212003       0.00000000      11.76991004  F       0.02422603       0.11566420       0.15413046
Cu       0.00000000       2.50302998      11.76991004  F      -0.04376226       0.03254038       0.14433585
Cu       2.50302998       2.50302998      11.76991004  F       0.03338452       0.00890650       0.16481086
Cu       5.00605995       2.50302998      11.76991004  F       0.00049524      -0.07636441       0.08173806
Cu       7.50909005       2.50302998      11.76991004  F       0.00068127      -0.02946042       0.09489947
Cu      10.01212003       2.50302998      11.76991004  F       0.12754227      -0.05552135       0.08279468
Cu       0.00000000       5.00605995      11.76991004  F      -0.06092091       0.00139235       0.11873964
Cu       2.50302998       5.00605995      11.76991004  F       0.05381061       0.00151842       0.16100283
Cu       5.00605995       5.00605995      11.76991004  F      -0.01991486       0.03503086       0.12351333
Cu       7.50909005       5.00605995      11.76991004  F      -0.03021927       0.00194969       0.11838807
Cu      10.01212003       5.00605995      11.76991004  F       0.06651947      -0.01654941       0.07914973
Cu       0.00000000       7.50909005      11.76991004  F      -0.06731880      -0.01689378       0.13416607
Cu       2.50302998       7.50909005      11.76991004  F       0.07979063       0.00392243       0.11987026
Cu       5.00605995       7.50909005      11.76991004  F      -0.01982730       0.03184340       0.11980947
Cu       7.50909005       7.50909005      11.76991004  F      -0.02951761       0.00601830       0.13557644
Cu      10.01212003       7.50909005      11.76991004  F       0.04339341       0.06995638       0.07742784
Cu       0.00000000      10.01212003      11.76991004  F      -0.00804630      -0.00366624       0.14126911
Cu       2.50302998      10.01212003      11.76991004  F       0.04382517      -0.00161861       0.13009950
Cu       5.00605995      10.01212003      11.76991004  F       0.03291099      -0.10537121       0.12985917