109
Lattice="12.51515363 0.0 0.0 0.0 12.51515363 0.0 0.0 0.0 25.30973" Properties=species:S:1:pos:R:3:move_mask:L:1:forces:R:3 energy=-453.02961493000004 stress="0.00825189932767742 -8.529009113350308e-05 9.349859937739019e-05 -8.529009113350308e-05 0.007760472983179358 0.00020985125836633356 9.349859937739019e-05 0.00020985125836633356 0.0021839413424050887" free_energy=-453.0272542 pbc="T T T"
Cu       1.25151999       1.25151999      10.00000011  F      -0.00098136      -0.02680483      -0.06911323
Cu       3.75454997       1.25151999      10.00000011  F       0.00411108      -0.00347463      -0.07227856
Cu       6.25757994       1.25151999      10.00000011  F      -0.01199607       0.00911714      -0.05920610
Cu       8.76061004       1.25151999      10.00000011  F       0.00467460       0.01412695      -0.04037544
Cu      11.26364002       1.25151999      10.00000011  F       0.00533040      -0.01150843      -0.07019466
Cu       1.25151999       3.75454997      10.00000011  F       0.00655983       0.01429232      -0.05733870
Cu       3.75454997       3.75454997      10.00000011  F       0.00465648      -0.00948583      -0.04479455
Cu       6.25757994       3.75454997      10.00000011  F      -0.02151887      -0.02136128      -0.06618575
Cu       8.76061004       3.75454997      10.00000011  F       0.01664265      -0.01745756      -0.08511305
Cu      11.26364002       3.75454997      10.00000011  F      -0.00489877       0.00350750      -0.04741852
Cu       1.25151999       6.25757994      10.00000011  F       0.00682343      -0.01979944      -0.07108804
Cu       3.75454997       6.25757994      10.00000011  F       0.00408798       0.00472187      -0.05602881
Cu       6.25757994       6.25757994      10.00000011  F      -0.00920775       0.03008322      -0.07698645
Cu       8.76061004       6.25757994      10.00000011  F       0.00953942       0.02856073      -0.08543357
Cu      11.26364002       6.25757994      10.00000011  F      -0.01256925       0.00693635      -0.05879223
Cu       1.25151999       8.76061004      10.00000011  F       0.00618895       0.00601851      -0.06453370
Cu       3.75454997       8.76061004      10.00000011  F       0.00206024      -0.00775450      -0.06867810
Cu       6.25757994       8.76061004      10.00000011  F      -0.00194036      -0.02280346      -0.05329873
Cu       8.76061004       8.76061004      10.00000011  F       0.01171685      -0.02025111      -0.04992215
Cu      11.26364002       8.76061004      10.00000011  F      -0.02052718      -0.01020215      -0.05453138
Cu       1.25151999      11.26364002      10.00000011  F       0.00288914       0.02568759      -0.03694481
Cu       3.75454997      11.26364002      10.00000011  F      -0.01095079       0.01418322      -0.07457858
Cu       6.25757994      11.26364002      10.00000011  F      -0.00571803       0.00517639      -0.07483841
Cu       8.76061004      11.26364002      10.00000011  F       0.00179941      -0.00469810      -0.05746940
Cu      11.26364002      11.26364002      10.00000011  F       0.01176404       0.00837442      -0.06531433
Cu       0.00000000       0.00000000      11.76991004  F      -0.00436639       0.04784119       0.05539676
Cu       2.50302998       0.00000000      11.76991004  F       0.02064139       0.00986465       0.02804600
Cu       5.00605995       0.00000000      11.76991004  F       0.04465082       0.10768166       0.04964520
Cu       7.50909005       0.00000000      11.76991004  F       0.01115889       0.09436621       0.08119266
Cu      10.01212003       0.00000000      11.76991004  F      -0.06148628       0.09653129       0.08584717
Cu       0.00000000       2.50302998      11.76991004  F      -0.06639113       0.05492034       0.09688385
Cu       2.50302998       2.50302998      11.76991004  F       0.06760681       0.05226349       0.09908676
Cu       5.00605995       2.50302998      11.76991004  F      -0.03762991      -0.03517274       0.05651094
Cu       7.50909005       2.50302998      11.76991004  F      -0.02745264      -0.03702987       0.05422315
Cu      10.01212003       2.50302998      11.76991004  F       0.03319028      -0.05131744       0.03794521
Cu       0.00000000       5.00605995      11.76991004  F      -0.04247700      -0.02428477       0.08131478
Cu       2.50302998       5.00605995      11.76991004  F       0.07143070      -0.01426120       0.06065673
Cu       5.00605995       5.00605995      11.76991004  F      -0.07291372       0.01003323       0.10941167
Cu       7.50909005       5.00605995      11.76991004  F      -0.01373230       0.00293193       0.05783896
Cu      10.01212003       5.00605995      11.76991004  F       0.02506320      -0.00998412       0.04605440
Cu       0.00000000       7.50909005      11.76991004  F      -0.03482898      -0.06511341       0.10485224
Cu       2.50302998       7.50909005      11.76991004  F       0.06757269      -0.02968778       0.04056120
Cu       5.00605995       7.50909005      11.76991004  F      -0.02456936       0.06198295       0.03201507
Cu       7.50909005       7.50909005      11.76991004  F       0.00573243       0.05612701       0.04120020
Cu      10.01212003       7.50909005      11.76991004  F       0.03848100       0.05615490       0.01951093
Cu       0.00000000      10.01212003      11.76991004  F      -0.01429793      -0.03269523       0.07318206
Cu       2.50302998      10.01212003      11.76991004  F       0.04668759       0.00724109       0.06347410
Cu       5.00605995      10.01212003      11.76991004  F       0.05220267      -0.04903364       0.06522900
Cu       7.50909005      10.01212003      11.76991004  F       0.00546446      -0.06771119       0.06739896
Cu      10.01212003      10.01212003      11.76991004  F      -0.03819154      -0.10260064       0.08033949
Cu       1.26843910       1.24730602      13.57824241  T      -0.00113104      -0.00138951      -0.00150331
Cu       3.76693159       1.27075604      13.59806423  T      -0.00026513      -0.00089009      -0.00089595
Cu       6.26823409       1.28856397      13.61936288  T      -0.00052221       0.00085129      -0.00001783
Cu       8.74562390       1.28300374      13.61552795  T      -0.00012879       0.00075237       0.00010998
Cu      11.24963218       1.25979626      13.59394634  T      -0.00000841       0.00077026       0.00021497
Cu       1.26450009       3.74822806      13.59068594  T      -0.00062406       0.00018973      -0.00031350
Cu       3.74958621       3.75991071      13.61323716  T       0.00013586       0.00056484       0.00058939
Cu       6.27083262       3.76250197      13.55927682  T      -0.00051679       0.00086529       0.00020856
Cu       8.74025640       3.76466985      13.56066151  T      -0.00000977       0.00097172       0.00041502
Cu      11.22677638       3.76070054      13.60359567  T       0.00001369       0.00106315       0.00058529
Cu       1.26607599       6.23968778      13.58158355  T       0.00024619      -0.00086114       0.00132790
Cu       3.76142279       6.26689347      13.60313326  T      -0.00012162      -0.00103224       0.00092362
Cu       6.28254768       6.27065227      13.55149787  T      -0.00011270       0.00048899      -0.00013205
Cu       8.74915668       6.24611343      13.55926973  T       0.00029394       0.00003017       0.00033151
Cu      11.23176605       6.25269603      13.59702350  T       0.00055377       0.00021790       0.00069949
Cu       1.25776017       8.76586804      13.56575130  T       0.00007277      -0.00145802       0.00048727
Cu       3.78575000       8.76142516      13.59216048  T      -0.00066299      -0.00145710       0.00029279
Cu       6.28107001       8.74761644      13.61343407  T      -0.00054147      -0.00036309       0.00001156
Cu       8.75700818       8.72916409      13.61265757  T      -0.00001243      -0.00045674       0.00026140
Cu      11.25703890       8.74713823      13.59864534  T       0.00038679      -0.00029816       0.00049349
Cu       1.25266188      11.26918874      13.59234398  T       0.00061702      -0.00117827       0.00052537
Cu       3.74597096      11.27954553      13.57332422  T      -0.00051600      -0.00124625       0.00002538
Cu       6.25538291      11.27571539      13.56617752  T      -0.00027197      -0.00007566      -0.00030958
Cu       8.76175881      11.26263343      13.56878543  T       0.00050896      -0.00008330      -0.00000263
Cu      11.27294166      11.26215923      13.57212024  T       0.00092358       0.00006358       0.00028123
Cu       0.00101848       0.00754451      15.36347611  T       0.00043520       0.00025631      -0.00013052
Cu       2.50994597      12.46934153      15.39319581  T       0.00057926      -0.00260926       0.00166534
Cu       5.00957058      12.51460171      15.35966295  T       0.00063741       0.00005929      -0.00068090
Cu       7.51003157      12.50101476      15.34885063  T       0.00032084       0.00019956       0.00063490
Cu      10.01539437      12.49054546      15.35029025  T       0.00058294       0.00036270       0.00061280
Cu       0.01034715       2.49694523      15.33749795  T      -0.00091186       0.00039002      -0.00044662
Cu       2.47417779       2.41274653      15.43497180  T      -0.00369716      -0.00441648      -0.01071818
Cu       4.97319028       2.46324668      15.46316582  T      -0.00334220       0.00026182       0.00093009
Cu       7.50310906       2.52307199      15.49006627  T      -0.00080654      -0.00028390      -0.00036254
Cu      10.05864561       2.44848856      15.43986543  T      -0.00002944      -0.00021238      -0.00057863
Cu      12.47548798       5.00862568      15.31796947  T       0.00052523       0.00032939       0.00018756
Cu       2.42189198       5.07872856      15.45631321  T       0.00206105      -0.00476658       0.00179289
Pd       5.06321115       5.05106119      15.43982899  T      -0.00134605      -0.00021357      -0.00053932
Y        7.47529288       5.02551175      17.25430201  T       0.00055278      -0.00049881      -0.00800445
Cu       9.97132788       5.00704815      15.44586131  T       0.00039263       0.00040480       0.00032195
Cu       0.05445005       7.50492688      15.34516250  T      -0.00044137       0.00021627       0.00018178
Cu       2.51758873       7.54649722      15.34568666  T      -0.00049142      -0.00347038       0.00030168
Cu       4.99524423       7.62697929      15.47222139  T      -0.00095205       0.00070625       0.00012517
Cu       7.54326293       7.50000442      15.47347169  T      -0.00039868       0.00046439       0.00017126
Cu      10.09638218       7.55427827      15.44407393  T       0.00020660       0.00079127      -0.00028067
Cu      12.51382440      10.00619673      15.36175277  T       0.00011562       0.00021364       0.00007164
Cu       2.50894802      10.00041485      15.36033112  T       0.00001092      -0.00302083       0.00010186
Cu       5.00285545      10.07206160      15.35447268  T      -0.00011425       0.00008233       0.00031817
Cu       7.50763141      10.03308579      15.34643861  T      -0.00002623      -0.00004611       0.00067902
Cu      10.01342874      10.02966277      15.35153827  T       0.00022879       0.00005535       0.00046612
O        6.10159220       3.43738682      16.71729154  T      -0.00007507       0.00018217       0.00125195
O        6.12797051       6.62898215      16.68570121  T       0.00081321      -0.00117131       0.00240003
O        8.98611910       6.44164907      16.54772192  T      -0.00239474      -0.00263906       0.00229438
O        8.95307646       3.58403501      16.52728431  T      -0.00207476       0.00315004       0.00284098
C        2.99708882       3.09889058      17.15758492  T      -0.00078875      -0.00878985       0.00010661
O        2.84469680       4.33899325      17.35387352  T       0.00597289      -0.02510952       0.00550077
H        3.80678772       2.98519917      19.21430344  T      -0.00082728      -0.02623746      -0.00352929
C        3.55348652       2.32667907      18.34517212  T      -0.01481225      -0.00718317      -0.00555430
O        3.69063120       1.11533247      18.38364064  T      -0.02829429      -0.04772945      -0.02410116
109
Lattice="12.51515363 0.0 0.0 0.0 12.51515363 0.0 0.0 0.0 25.30973" Properties=species:S:1:pos:R:3:move_mask:L:1:forces:R:3 energy=-453.04007512 stress="0.00820850899910972 -8.53806928799744e-05 9.19243846701873e-05 -8.53806928799744e-05 0.007721193811842695 0.00020972029278034513 9.19243846701873e-05 0.00020972029278034513 0.0021320890254248803" free_energy=-453.03771212 pbc="T T T"
Cu       1.25151999       1.25151999      10.00000011  F      -0.00084778      -0.02684421      -0.06879225
Cu       3.75454997       1.25151999      10.00000011  F       0.00426003      -0.00389067      -0.07221822
Cu       6.25757994       1.25151999      10.00000011  F      -0.01214501       0.00858405      -0.05919915
Cu       8.76061004       1.25151999      10.00000011  F       0.00438588       0.01341257      -0.04050696
Cu      11.26364002       1.25151999      10.00000011  F       0.00517836      -0.01161559      -0.07047721
Cu       1.25151999       3.75454997      10.00000011  F       0.00657331       0.01404973      -0.05740515
Cu       3.75454997       3.75454997      10.00000011  F       0.00463708      -0.00974585      -0.04479558
Cu       6.25757994       3.75454997      10.00000011  F      -0.02166363      -0.02162312      -0.06620161
Cu       8.76061004       3.75454997      10.00000011  F       0.01651522      -0.01772741      -0.08522382
Cu      11.26364002       3.75454997      10.00000011  F      -0.00492562       0.00320821      -0.04751407
Cu       1.25151999       6.25757994      10.00000011  F       0.00690606      -0.01981293      -0.07126013
Cu       3.75454997       6.25757994      10.00000011  F       0.00416802       0.00473165      -0.05601753
Cu       6.25757994       6.25757994      10.00000011  F      -0.00939986       0.03008442      -0.07696029
Cu       8.76061004       6.25757994      10.00000011  F       0.00931561       0.02857649      -0.08565189
Cu      11.26364002       6.25757994      10.00000011  F      -0.01263589       0.00717785      -0.05909836
Cu       1.25151999       8.76061004      10.00000011  F       0.00603319       0.00563152      -0.06512110
Cu       3.75454997       8.76061004      10.00000011  F       0.00217287      -0.00781518      -0.06828896
Cu       6.25757994       8.76061004      10.00000011  F      -0.00209451      -0.02276796      -0.05287445
Cu       8.76061004       8.76061004      10.00000011  F       0.01177278      -0.01999681      -0.05025951
Cu      11.26364002       8.76061004      10.00000011  F      -0.02066646      -0.01050851      -0.05711502
Cu       1.25151999      11.26364002      10.00000011  F       0.00315158       0.02525003      -0.03625442
Cu       3.75454997      11.26364002      10.00000011  F      -0.01056942       0.01382891      -0.07397459
Cu       6.25757994      11.26364002      10.00000011  F      -0.00561016       0.00486028      -0.07435038
Cu       8.76061004      11.26364002      10.00000011  F       0.00128962      -0.00508646      -0.05937788
Cu      11.26364002      11.26364002      10.00000011  F       0.01110547       0.00772744      -0.06566274
Cu       0.00000000       0.00000000      11.76991004  F      -0.00438080       0.04792306       0.05570222
Cu       2.50302998       0.00000000      11.76991004  F       0.02078093       0.00984545       0.02832591
Cu       5.00605995       0.00000000      11.76991004  F       0.04452128       0.10756999       0.04971061
Cu       7.50909005       0.00000000      11.76991004  F       0.01108167       0.09419069       0.08107041
Cu      10.01212003       0.00000000      11.76991004  F      -0.06171503       0.09646303       0.08583399
Cu       0.00000000       2.50302998      11.76991004  F      -0.06636181       0.05472359       0.09698028
Cu       2.50302998       2.50302998      11.76991004  F       0.06760850       0.05205326       0.09929209
Cu       5.00605995       2.50302998      11.76991004  F      -0.03776431      -0.03533165       0.05676906
Cu       7.50909005       2.50302998      11.76991004  F      -0.02762965      -0.03718362       0.05441646
Cu      10.01212003       2.50302998      11.76991004  F       0.03312281      -0.05150831       0.03803903
Cu       0.00000000       5.00605995      11.76991004  F      -0.04244883      -0.02459223       0.08141159
Cu       2.50302998       5.00605995      11.76991004  F       0.07147637      -0.01456929       0.06091155
Cu       5.00605995       5.00605995      11.76991004  F      -0.07303577       0.00970164       0.10963149
Cu       7.50909005       5.00605995      11.76991004  F      -0.01392009       0.00258728       0.05805723
Cu      10.01212003       5.00605995      11.76991004  F       0.02498929      -0.01031836       0.04617098
Cu       0.00000000       7.50909005      11.76991004  F      -0.03487279      -0.06527660       0.10467173
Cu       2.50302998       7.50909005      11.76991004  F       0.06756725      -0.02998170       0.04068012
Cu       5.00605995       7.50909005      11.76991004  F      -0.02470274       0.06166444       0.03219947
Cu       7.50909005       7.50909005      11.76991004  F       0.00552665       0.05585335       0.04132806
Cu      10.01212003       7.50909005      11.76991004  F       0.03854541       0.05598505       0.01937659
Cu       0.00000000      10.01212003      11.76991004  F      -0.01433869      -0.03322201       0.07324873
Cu       2.50302998      10.01212003      11.76991004  F       0.04677172       0.00688206       0.06363102
Cu       5.00605995      10.01212003      11.76991004  F       0.05205758      -0.04922834       0.06525281
Cu       7.50909005      10.01212003      11.76991004  F       0.00542565      -0.06781318       0.06721199
Cu      10.01212003      10.01212003      11.76991004  F      -0.03832766      -0.10290241       0.08012084
Cu       1.26842822       1.24729263      13.57822798  T      -0.00047126      -0.00079796      -0.00061783
Cu       3.76692908       1.27074740      13.59805563  T      -0.00009643      -0.00061585      -0.00036500
Cu       6.26822909       1.28857223      13.61936262  T      -0.00044810       0.00018982       0.00005291
Cu       8.74562265       1.28301100      13.61552896  T      -0.00019738       0.00008677       0.00004197
Cu      11.24963218       1.25980377      13.59394836  T       0.00000054       0.00018942       0.00017635
Cu       1.26449408       3.74822994      13.59068290  T      -0.00017865      -0.00016911      -0.00000333
Cu       3.74958746       3.75991622      13.61324273  T      -0.00004350      -0.00012085       0.00028777
Cu       6.27082761       3.76251036      13.55927884  T      -0.00039127       0.00006587       0.00024562
Cu       8.74025627       3.76467923      13.56066556  T      -0.00017509       0.00006664       0.00025973
Cu      11.22677651       3.76071080      13.60360149  T      -0.00000891       0.00012346       0.00035528
Cu       1.26607825       6.23967952      13.58159620  T       0.00029658      -0.00074696       0.00067616
Cu       3.76142154       6.26688358      13.60314212  T      -0.00010262      -0.00062502       0.00041760
Cu       6.28254655       6.27065703      13.55149661  T      -0.00026889      -0.00009879       0.00011267
Cu       8.74915955       6.24611369      13.55927302  T      -0.00011032      -0.00024375       0.00024200
Cu      11.23177143       6.25269803      13.59703033  T       0.00019893      -0.00024334       0.00035188
Cu       1.25776080       8.76585389      13.56575611  T       0.00015833      -0.00082453       0.00021070
Cu       3.78574361       8.76141101      13.59216327  T      -0.00026924      -0.00085070       0.00010989
Cu       6.28106475       8.74761293      13.61343432  T      -0.00044623      -0.00038233       0.00001047
Cu       8.75700806       8.72915971      13.61266010  T      -0.00025157      -0.00038488       0.00004624
Cu      11.25704266       8.74713548      13.59864990  T       0.00013387      -0.00037026       0.00017879
Cu       1.25266776      11.26917735      13.59234904  T       0.00038021      -0.00057736       0.00029706
Cu       3.74596595      11.27953339      13.57332448  T      -0.00016678      -0.00065863       0.00002053
Cu       6.25538028      11.27571464      13.56617448  T      -0.00028085      -0.00017837      -0.00019236
Cu       8.76176382      11.26263267      13.56878543  T      -0.00004853      -0.00014724       0.00004227
Cu      11.27295054      11.26215985      13.57212302  T       0.00031685      -0.00006843       0.00014119
Cu       0.00102274       0.00754701      15.36347485  T       0.00024300       0.00002352      -0.00013417
Cu       2.50995161      12.46931638      15.39321175  T       0.00030231      -0.00113191       0.00062505
Cu       5.00957671      12.51460234      15.35965637  T       0.00013270      -0.00001833      -0.00036326
Cu       7.51003469      12.50101676      15.34885671  T      -0.00005306      -0.00004734       0.00012156
Cu      10.01539987      12.49054896      15.35029632  T       0.00012910       0.00001164       0.00017562
Cu       0.01033827       2.49694899      15.33749365  T      -0.00033190       0.00001529      -0.00029347
Cu       2.47414212       2.41270386      15.43486853  T      -0.00149565      -0.00195698      -0.00478602
Cu       4.97315799       2.46324931      15.46317493  T      -0.00133313       0.00010182       0.00060034
Cu       7.50310130       2.52306924      15.49006273  T      -0.00059778      -0.00022103      -0.00005025
Cu      10.05864536       2.44848656      15.43985986  T      -0.00044992       0.00009347       0.00002784
Cu      12.47549311       5.00862881      15.31797124  T       0.00042353      -0.00018925       0.00007020
Cu       2.42191188       5.07868263      15.45633042  T       0.00087526      -0.00256226       0.00091801
Pd       5.06319813       5.05105919      15.43982392  T       0.00035420      -0.00033763       0.00061553
Y        7.47529813       5.02550687      17.25422481  T      -0.00009165      -0.00019775      -0.00205386
Cu       9.97133164       5.00705203      15.44586434  T       0.00009408      -0.00009747       0.00024622
Cu       0.05444580       7.50492901      15.34516402  T      -0.00010023      -0.00023226       0.00009202
Cu       2.51758397       7.54646368      15.34568970  T      -0.00015147      -0.00183806       0.00005431
Cu       4.99523509       7.62698618      15.47222266  T      -0.00021542      -0.00029836       0.00025992
Cu       7.54325905       7.50000880      15.47347346  T      -0.00041076      -0.00015525       0.00019220
Cu      10.09638418       7.55428590      15.44407115  T      -0.00034399      -0.00026945       0.00020608
Cu      12.51382552      10.00619886      15.36175353  T       0.00008983      -0.00011991       0.00003229
Cu       2.50894814      10.00038569      15.36033214  T       0.00004220      -0.00150491      -0.00006358
Cu       5.00285432      10.07206248      15.35447572  T      -0.00012979      -0.00019145      -0.00004105
Cu       7.50763116      10.03308529      15.34644519  T      -0.00020496      -0.00024100       0.00015605
Cu      10.01343099      10.02966327      15.35154283  T      -0.00002394      -0.00015617       0.00017937
O        6.10159144       3.43738857      16.71730344  T      -0.00189295      -0.00106867      -0.00103538
O        6.12797839       6.62897088      16.68572424  T      -0.00111729      -0.00036617       0.00001558
O        8.98609594       6.44162366      16.54774394  T      -0.00065958      -0.00090743       0.00037442
O        8.95305656       3.58406542      16.52731165  T      -0.00036878       0.00036908       0.00038628
C        2.99708118       3.09880573      17.15758594  T      -0.00038053      -0.01377090      -0.00154403
O        2.84475437       4.33875096      17.35392667  T       0.00343229      -0.01340376       0.00364602
H        3.80677971       2.98494599      19.21426953  T      -0.00078485      -0.02585542      -0.00260185
C        3.55334359       2.32660974      18.34511847  T      -0.01139830      -0.03391333      -0.00564173
O        3.69035824       1.11487191      18.38340829  T      -0.02799595      -0.01538358      -0.01892780
109
Lattice="12.51515363 0.0 0.0 0.0 12.51515363 0.0 0.0 0.0 25.30973" Properties=species:S:1:pos:R:3:move_mask:L:1:forces:R:3 energy=-453.02992524999996 stress="0.008202605455219985 -8.509515007897436e-05 9.264632754775996e-05 -8.509515007897436e-05 0.007712896000086234 0.0002100367997081187 9.264632754775996e-05 0.0002100367997081187 0.002130981151313527" free_energy=-453.02756329 pbc="T T T"
Cu       1.25151999       1.25151999      10.00000011  F      -0.00124477      -0.02691984      -0.06896052
Cu       3.75454997       1.25151999      10.00000011  F       0.00413613      -0.00382623      -0.07241100
Cu       6.25757994       1.25151999      10.00000011  F      -0.01190909       0.00856853      -0.05925597
Cu       8.76061004       1.25151999      10.00000011  F       0.00455834       0.01328470      -0.04042977
Cu      11.26364002       1.25151999      10.00000011  F       0.00491381      -0.01188079      -0.07049495
Cu       1.25151999       3.75454997      10.00000011  F       0.00629224       0.01411157      -0.05751058
Cu       3.75454997       3.75454997      10.00000011  F       0.00453172      -0.00976878      -0.04491606
Cu       6.25757994       3.75454997      10.00000011  F      -0.02154972      -0.02171796      -0.06625959
Cu       8.76061004       3.75454997      10.00000011  F       0.01659356      -0.01781356      -0.08521397
Cu      11.26364002       3.75454997      10.00000011  F      -0.00511127       0.00323435      -0.04753054
Cu       1.25151999       6.25757994      10.00000011  F       0.00645828      -0.01982422      -0.07123037
Cu       3.75454997       6.25757994      10.00000011  F       0.00389033       0.00453507      -0.05614395
Cu       6.25757994       6.25757994      10.00000011  F      -0.00921991       0.02991207      -0.07707928
Cu       8.76061004       6.25757994      10.00000011  F       0.00960610       0.02855289      -0.08556602
Cu      11.26364002       6.25757994      10.00000011  F      -0.01275723       0.00730986      -0.05894641
Cu       1.25151999       8.76061004      10.00000011  F       0.00544156       0.00545731      -0.06507002
Cu       3.75454997       8.76061004      10.00000011  F       0.00184935      -0.00803854      -0.06877874
Cu       6.25757994       8.76061004      10.00000011  F      -0.00179945      -0.02289623      -0.05337915
Cu       8.76061004       8.76061004      10.00000011  F       0.01216466      -0.02007200      -0.05014837
Cu      11.26364002       8.76061004      10.00000011  F      -0.02084000      -0.01054827      -0.05679474
Cu       1.25151999      11.26364002      10.00000011  F       0.00255136       0.02502324      -0.03632885
Cu       3.75454997      11.26364002      10.00000011  F      -0.01076259       0.01376690      -0.07453628
Cu       6.25757994      11.26364002      10.00000011  F      -0.00526287       0.00481158      -0.07498593
Cu       8.76061004      11.26364002      10.00000011  F       0.00163178      -0.00520975      -0.05923293
Cu      11.26364002      11.26364002      10.00000011  F       0.01087025       0.00744347      -0.06544086
Cu       0.00000000       0.00000000      11.76991004  F      -0.00480764       0.04751417       0.05548910
Cu       2.50302998       0.00000000      11.76991004  F       0.02062375       0.00952494       0.02817004
Cu       5.00605995       0.00000000      11.76991004  F       0.04472259       0.10723634       0.04952738
Cu       7.50909005       0.00000000      11.76991004  F       0.01126507       0.09382697       0.08084063
Cu      10.01212003       0.00000000      11.76991004  F      -0.06189757       0.09603425       0.08558270
Cu       0.00000000       2.50302998      11.76991004  F      -0.06671955       0.05466054       0.09682930
Cu       2.50302998       2.50302998      11.76991004  F       0.06742372       0.05197046       0.09906529
Cu       5.00605995       2.50302998      11.76991004  F      -0.03765356      -0.03554566       0.05645104
Cu       7.50909005       2.50302998      11.76991004  F      -0.02746607      -0.03742003       0.05418561
Cu      10.01212003       2.50302998      11.76991004  F       0.03299783      -0.05166345       0.03789114
Cu       0.00000000       5.00605995      11.76991004  F      -0.04278995      -0.02441077       0.08122553
Cu       2.50302998       5.00605995      11.76991004  F       0.07119679      -0.01444681       0.06059455
Cu       5.00605995       5.00605995      11.76991004  F      -0.07296894       0.00980233       0.10930389
Cu       7.50909005       5.00605995      11.76991004  F      -0.01371181       0.00269944       0.05785854
Cu      10.01212003       5.00605995      11.76991004  F       0.02494877      -0.01014371       0.04604482
Cu       0.00000000       7.50909005      11.76991004  F      -0.03525222      -0.06519778       0.10442766
Cu       2.50302998       7.50909005      11.76991004  F       0.06726461      -0.02994291       0.04043444
Cu       5.00605995       7.50909005      11.76991004  F      -0.02463564       0.06178963       0.03197528
Cu       7.50909005       7.50909005      11.76991004  F       0.00580266       0.05601643       0.04112601
Cu      10.01212003       7.50909005      11.76991004  F       0.03850945       0.05614015       0.01914898
Cu       0.00000000      10.01212003      11.76991004  F      -0.01476839      -0.03349057       0.07296651
Cu       2.50302998      10.01212003      11.76991004  F       0.04654379       0.00663742       0.06345812
Cu       5.00605995      10.01212003      11.76991004  F       0.05222244      -0.04937587       0.06513094