109
Lattice="12.51515363 0.0 0.0 0.0 12.51515363 0.0 0.0 0.0 25.30973" Properties=species:S:1:pos:R:3:move_mask:L:1:forces:R:3 energy=-453.24105595 stress="0.008470246384711196 5.3417300495413654e-05 3.35763231728715e-06 5.3417300495413654e-05 0.008680697988874312 7.596709277858913e-06 3.35763231728715e-06 7.596709277858913e-06 0.003476781409541836" free_energy=-453.24177948 pbc="T T T"
Cu       1.25151999       1.25151999      10.00000011  F      -0.00078343      -0.00111299      -0.05636012
Cu       3.75454997       1.25151999      10.00000011  F       0.00743943       0.00994346      -0.06662244
Cu       6.25757994       1.25151999      10.00000011  F       0.00295509       0.01761751      -0.06541041
Cu       8.76061004       1.25151999      10.00000011  F      -0.00389531       0.01506713      -0.05788915
Cu      11.26364002       1.25151999      10.00000011  F      -0.00743958       0.00456146      -0.06418937
Cu       1.25151999       3.75454997      10.00000011  F      -0.00022256       0.00697920      -0.06499442
Cu       3.75454997       3.75454997      10.00000011  F       0.00722720      -0.01359784      -0.06553161
Cu       6.25757994       3.75454997      10.00000011  F      -0.01165485      -0.02564407      -0.07099035
Cu       8.76061004       3.75454997      10.00000011  F       0.01695591      -0.02538649      -0.07516442
Cu      11.26364002       3.75454997      10.00000011  F      -0.00931359       0.00218124      -0.06238976
Cu       1.25151999       6.25757994      10.00000011  F      -0.00073010      -0.00694549      -0.06517533
Cu       3.75454997       6.25757994      10.00000011  F       0.01293266       0.01265542      -0.04989370
Cu       6.25757994       6.25757994      10.00000011  F      -0.02005537       0.02059936      -0.07929759
Cu       8.76061004       6.25757994      10.00000011  F       0.02045925       0.01658300      -0.07776063
Cu      11.26364002       6.25757994      10.00000011  F      -0.01044287      -0.00305064      -0.04757251
Cu       1.25151999       8.76061004      10.00000011  F      -0.00143574       0.00861653      -0.06143138
Cu       3.75454997       8.76061004      10.00000011  F       0.00123253      -0.01110309      -0.05766106
Cu       6.25757994       8.76061004      10.00000011  F      -0.00318850      -0.01571024      -0.05902861
Cu       8.76061004       8.76061004      10.00000011  F       0.00163296      -0.00953191      -0.04480963
Cu      11.26364002       8.76061004      10.00000011  F      -0.00090855      -0.00484026      -0.05953679
Cu       1.25151999      11.26364002      10.00000011  F      -0.00599540      -0.00790020      -0.01327410
Cu       3.75454997      11.26364002      10.00000011  F      -0.00717705       0.00159921      -0.06354834
Cu       6.25757994      11.26364002      10.00000011  F       0.01624543       0.00268938      -0.05739222
Cu       8.76061004      11.26364002      10.00000011  F      -0.02137717       0.00343673      -0.05631207
Cu      11.26364002      11.26364002      10.00000011  F       0.01676199       0.00100410      -0.06635078
Cu       0.00000000       0.00000000      11.76991004  F      -0.00659701       0.05836224       0.12737043
Cu       2.50302998       0.00000000      11.76991004  F       0.02758129       0.03951308       0.11929541
Cu       5.00605995       0.00000000      11.76991004  F       0.04673377       0.11389369       0.10441363
Cu       7.50909005       0.00000000      11.76991004  F       0.01780504       0.04922696       0.13125024
Cu      10.01212003       0.00000000      11.76991004  F      -0.04333489       0.11284757       0.11700877
Cu       0.00000000       2.50302998      11.76991004  F      -0.09620372       0.03408756       0.11292398
Cu       2.50302998       2.50302998      11.76991004  F       0.08440620       0.02849176       0.10205570
Cu       5.00605995       2.50302998      11.76991004  F       0.00130114      -0.04912416       0.10943099
Cu       7.50909005       2.50302998      11.76991004  F      -0.03092935       0.00057470       0.13701140
Cu      10.01212003       2.50302998      11.76991004  F       0.04118944      -0.05591898       0.08894046
Cu       0.00000000       5.00605995      11.76991004  F      -0.12218194      -0.00622531       0.08614411
Cu       2.50302998       5.00605995      11.76991004  F       0.10363171      -0.00544592       0.10533738
Cu       5.00605995       5.00605995      11.76991004  F      -0.06203108       0.02023587       0.16930495
Cu       7.50909005       5.00605995      11.76991004  F      -0.06010036      -0.00141010       0.16617103
Cu      10.01212003       5.00605995      11.76991004  F       0.05581552       0.02000740       0.10996909
Cu       0.00000000       7.50909005      11.76991004  F      -0.10189855      -0.00550305       0.10128529
Cu       2.50302998       7.50909005      11.76991004  F       0.08615656      -0.00086120       0.09349442
Cu       5.00605995       7.50909005      11.76991004  F      -0.02953510       0.03249124       0.11051878
Cu       7.50909005       7.50909005      11.76991004  F      -0.03029694       0.00181768       0.13985734
Cu      10.01212003       7.50909005      11.76991004  F       0.07413521       0.04533760       0.08212072
Cu       0.00000000      10.01212003      11.76991004  F      -0.02479338      -0.05811291       0.11761161
Cu       2.50302998      10.01212003      11.76991004  F       0.03845987      -0.04424292       0.11858799
Cu       5.00605995      10.01212003      11.76991004  F       0.00013360      -0.12132275       0.16063744
Cu       7.50909005      10.01212003      11.76991004  F       0.01831100      -0.05060427       0.08503264
Cu      10.01212003      10.01212003      11.76991004  F       0.00838954      -0.11250451       0.17343012
Cu       1.26144877       1.25331291      13.58476852  T       0.00245028      -0.01565115      -0.00250618
Cu       3.78365609       1.26364805      13.61280867  T      -0.00843046      -0.01454845      -0.01210679
Cu       6.28077728       1.28065364      13.62466197  T       0.00163391      -0.00809431      -0.00195690
Cu       8.75735473       1.28374777      13.62352987  T       0.00444220      -0.01321881       0.00320929
Cu      11.25679836       1.26991301      13.61008939  T       0.00494391      -0.01382325      -0.00823446
Cu       1.24034258       3.76345663      13.56841565  T       0.00953176      -0.02095433       0.00862317
Cu       3.75351146       3.75700419      13.61341711  T      -0.01598277      -0.00238167       0.00537383
Cu       6.26382876       3.76429740      13.58980238  T       0.00653345       0.00718489      -0.04612831
Cu       8.74434873       3.76711331      13.56924278  T      -0.00089820       0.00084950      -0.03271102
Cu      11.23824314       3.77440501      13.62341775  T       0.00022055      -0.00458596       0.01647820
Cu       1.24012670       6.26683102      13.55791566  T       0.00238417       0.02510343       0.01620728
Cu       3.74187062       6.26223483      13.62105812  T      -0.02417554       0.00955726       0.01472476
Cu       6.26181269       6.24217004      13.58715397  T      -0.00029912      -0.00377788      -0.04358979
Cu       8.74913390       6.24406621      13.56701501  T      -0.00622405      -0.00329878      -0.03346823
Cu      11.24900255       6.24698662      13.62756424  T       0.00861338      -0.00005157       0.02008127
Cu       1.26036771       8.75701281      13.59771774  T       0.00365366       0.01695854       0.00961892
Cu       3.76654449       8.73770869      13.62796996  T      -0.01295706       0.00541318       0.01056424
Cu       6.28043149       8.73457164      13.61551301  T       0.00480539       0.00977853       0.00431465
Cu       8.75997064       8.73416190      13.61529586  T      -0.01856736       0.01357956       0.00313471
Cu      11.27158439       8.73488239      13.62466349  T       0.01171357       0.01266873       0.01046788
Cu       1.25063405      11.26709270      13.60087361  T      -0.00093047       0.00732804      -0.02384534
Cu       3.75071032      11.26591928      13.57810498  T      -0.01201078       0.00674576      -0.00596219
Cu       6.25666684      11.26270714      13.57631305  T      -0.00042061       0.00916620       0.00689359
Cu       8.76246967      11.26338321      13.58203128  T      -0.00286651       0.00899897       0.00298585
Cu      11.26623867      11.26718857      13.57850437  T       0.01513616       0.01063816      -0.00448254
Cu       0.00160920       0.01266396      15.39678549  T      -0.02136510       0.02124341      -0.08688893
Cu       2.50409339       0.01195034      15.39574045  T       0.01846391       0.01426787      -0.08666242
Cu       5.00331200      12.48155695      15.37816866  T       0.00802940       0.00637053      -0.05560387
Cu       7.50899644      12.49850022      15.37032088  T      -0.00221916       0.00051490      -0.06334986
Cu      10.01856195      12.49512788      15.37591559  T      -0.00856260       0.00950191      -0.06004397
Cu       0.04389377       2.48234981      15.37381109  T       0.01069240       0.00558853      -0.05376938
Cu       2.51894424       2.48571764      15.37521426  T      -0.00665436      -0.00376834      -0.04783635
Cu       4.99394766       2.42085172      15.48930419  T      -0.04761525      -0.07549307      -0.07754737
Cu       7.54069282       2.51805604      15.48980153  T       0.02016400      -0.07976119      -0.13025744
Cu      10.08959308       2.45991740      15.46177505  T       0.05947538      -0.05878863      -0.07262682
Cu      12.48330507       4.98064843      15.42714653  T      -0.05602968      -0.03291642      -0.09570100
Cu       2.42384372       4.96874014      15.44906603  T       0.01495961      -0.04673219      -0.08289842
Pd       4.92940539       5.00102598      15.53827624  T       0.03532377      -0.00612086      -0.08017810
Y        7.48982748       5.00025980      17.25821135  T      -0.01407064       0.02513104       0.08427675
Cu       9.98700424       5.00394301      15.47619122  T       0.11456374      -0.00753738      -0.13613924
Cu      12.50389938       7.56741304      15.44602481  T      -0.09757012       0.03178415      -0.07935857
Cu       2.55696140       7.54517199      15.45272455  T       0.07592853       0.03116418      -0.06089264
Cu       5.00994353       7.58603822      15.47453293  T      -0.04472786       0.09165271      -0.08704029
Cu       7.54143396       7.49833565      15.48500078  T       0.01536741       0.08357327      -0.13219467
Cu      10.06261041       7.55549073      15.45091440  T       0.02176941       0.07286304      -0.09964110
Cu      12.50830709      10.05450372      15.38091730  T      -0.01019048      -0.00009946      -0.07099346
Cu       2.51454379      10.04637037      15.37863284  T       0.00778690      -0.00782534      -0.07126278
Cu       5.00658108      10.03908305      15.37319530  T       0.01042394      -0.02053160      -0.04902323
Cu       7.50900119      10.03118949      15.36986505  T      -0.00056900      -0.01950740      -0.07581898
Cu      10.01523117      10.03087085      15.37375262  T      -0.00251286      -0.02125047      -0.05500406
O        6.14535543       3.42044317      16.66389713  T      -0.10309794       0.03238134       0.12523492
O        6.14572626       6.57798652      16.64259393  T      -0.08436122      -0.07018484       0.14449645
O        8.97215919       6.41981826      16.52820458  T       0.03236767       0.06389231       0.11120639
O        8.96568197       3.58475913      16.53195624  T       0.06406600      -0.08921817       0.11882345
C        1.18637837       5.67031750      16.84915498  T       0.03244361       0.55906989       0.47107391
O        1.24830448       7.03647292      16.92009968  T      -0.01937447      -0.83666441       0.05971614
H        1.12895521       3.77422291      17.95126996  T      -0.01464643       0.28767109       0.03539032
C        1.11953881       4.89209008      18.13883025  T       0.01601481      -0.05710188      -0.55449836
O        1.05023978       5.37382275      19.26413299  T       0.00805729       0.00892512      -0.06329008
109
Lattice="12.51515363 0.0 0.0 0.0 12.51515363 0.0 0.0 0.0 25.30973" Properties=species:S:1:pos:R:3:move_mask:L:1:forces:R:3 energy=-453.25856145 stress="0.008411091708023505 4.6568904471184254e-05 -3.5770088800436954e-08 4.6568904471184254e-05 0.00847845812605681 3.9848116101033554e-05 -3.5770088800436954e-08 3.9848116101033554e-05 0.0034024658325609745" free_energy=-453.25929496 pbc="T T T"
Cu       1.25151999       1.25151999      10.00000011  F      -0.00084451      -0.00134108      -0.05716057
Cu       3.75454997       1.25151999      10.00000011  F       0.00728276       0.00961864      -0.06712160
Cu       6.25757994       1.25151999      10.00000011  F       0.00246936       0.01783968      -0.06558780
Cu       8.76061004       1.25151999      10.00000011  F      -0.00333601       0.01533747      -0.05814755
Cu      11.26364002       1.25151999      10.00000011  F      -0.00726595       0.00438102      -0.06468623
Cu       1.25151999       3.75454997      10.00000011  F      -0.00016811       0.00692319      -0.06537924
Cu       3.75454997       3.75454997      10.00000011  F       0.00705457      -0.01361652      -0.06562959
Cu       6.25757994       3.75454997      10.00000011  F      -0.01146616      -0.02567760      -0.07117560
Cu       8.76061004       3.75454997      10.00000011  F       0.01677700      -0.02547779      -0.07542368
Cu      11.26364002       3.75454997      10.00000011  F      -0.00914661       0.00207303      -0.06278289
Cu       1.25151999       6.25757994      10.00000011  F      -0.00065553      -0.00689569      -0.06525649
Cu       3.75454997       6.25757994      10.00000011  F       0.01254129       0.01257655      -0.05003226
Cu       6.25757994       6.25757994      10.00000011  F      -0.01982901       0.02056573      -0.07952845
Cu       8.76061004       6.25757994      10.00000011  F       0.02021187       0.01656127      -0.07807886
Cu      11.26364002       6.25757994      10.00000011  F      -0.01004062      -0.00308533      -0.04785794
Cu       1.25151999       8.76061004      10.00000011  F      -0.00145984       0.00861316      -0.06183481
Cu       3.75454997       8.76061004      10.00000011  F       0.00074588      -0.01123466      -0.05796585
Cu       6.25757994       8.76061004      10.00000011  F      -0.00266214      -0.01574032      -0.05955800
Cu       8.76061004       8.76061004      10.00000011  F       0.00113044      -0.00956839      -0.04526933
Cu      11.26364002       8.76061004      10.00000011  F      -0.00038439      -0.00502815      -0.05973892
Cu       1.25151999      11.26364002      10.00000011  F      -0.00594179      -0.00781914      -0.01428526
Cu       3.75454997      11.26364002      10.00000011  F      -0.00736208       0.00198267      -0.06454254
Cu       6.25757994      11.26364002      10.00000011  F       0.01595330       0.00240062      -0.05801444
Cu       8.76061004      11.26364002      10.00000011  F      -0.02120908       0.00312108      -0.05643556
Cu      11.26364002      11.26364002      10.00000011  F       0.01708541       0.00134478      -0.06617975
Cu       0.00000000       0.00000000      11.76991004  F      -0.00638586       0.05859044       0.12603353
Cu       2.50302998       0.00000000      11.76991004  F       0.02718479       0.03959875       0.11805360
Cu       5.00605995       0.00000000      11.76991004  F       0.04716071       0.11361478       0.10359889
Cu       7.50909005       0.00000000      11.76991004  F       0.01777829       0.04956259       0.13101428
Cu      10.01212003       0.00000000      11.76991004  F      -0.04342899       0.11257112       0.11624840
Cu       0.00000000       2.50302998      11.76991004  F      -0.09605390       0.03423450       0.11316719
Cu       2.50302998       2.50302998      11.76991004  F       0.08428784       0.02850678       0.10177540
Cu       5.00605995       2.50302998      11.76991004  F       0.00083652      -0.04915082       0.10893514
Cu       7.50909005       2.50302998      11.76991004  F      -0.03076565      -0.00062976       0.13603700
Cu      10.01212003       2.50302998      11.76991004  F       0.04158811      -0.05609990       0.08842943
Cu       0.00000000       5.00605995      11.76991004  F      -0.12180655      -0.00634778       0.08595799
Cu       2.50302998       5.00605995      11.76991004  F       0.10315770      -0.00536885       0.10470776
Cu       5.00605995       5.00605995      11.76991004  F      -0.06321694       0.02022925       0.16858084
Cu       7.50909005       5.00605995      11.76991004  F      -0.05994761      -0.00138752       0.16394900
Cu      10.01212003       5.00605995      11.76991004  F       0.05679901       0.01988456       0.10931054
Cu       0.00000000       7.50909005      11.76991004  F      -0.10195406      -0.00545804       0.10057690
Cu       2.50302998       7.50909005      11.76991004  F       0.08607935      -0.00080066       0.09256367
Cu       5.00605995       7.50909005      11.76991004  F      -0.03050216       0.03285691       0.11063278
Cu       7.50909005       7.50909005      11.76991004  F      -0.03030214       0.00243471       0.13864241
Cu      10.01212003       7.50909005      11.76991004  F       0.07499335       0.04573944       0.08259967
Cu       0.00000000      10.01212003      11.76991004  F      -0.02466411      -0.05848203       0.11693842
Cu       2.50302998      10.01212003      11.76991004  F       0.03839858      -0.04453458       0.11780214
Cu       5.00605995      10.01212003      11.76991004  F      -0.00016844      -0.12135982       0.16094554
Cu       7.50909005      10.01212003      11.76991004  F       0.01833992      -0.05031113       0.08451544
Cu      10.01212003      10.01212003      11.76991004  F       0.00857281      -0.11238096       0.17378242
Cu       1.26147242       1.25316186      13.58474448  T       0.00220838      -0.01458705      -0.00512464
Cu       3.78357474       1.26350763      13.61269174  T      -0.00794269      -0.01379674      -0.01562788
Cu       6.28079305       1.28057555      13.62464324  T       0.00091660      -0.00738264      -0.00500094
Cu       8.75739753       1.28362011      13.62356075  T       0.00504872      -0.01256102      -0.00086338
Cu      11.25684617       1.26977973      13.61000992  T       0.00516572      -0.01300252      -0.01221984
Cu       1.24043457       3.76325451      13.56849867  T       0.00874654      -0.01832638       0.00745305
Cu       3.75335715       3.75698116      13.61346900  T      -0.01290506      -0.00309804       0.00222134
Cu       6.26389184       3.76436673      13.58935718  T       0.00605663       0.00552359      -0.04342331
Cu       8.74434009       3.76712144      13.56892716  T      -0.00056266       0.00033517      -0.03011101
Cu      11.23824527       3.77436083      13.62357695  T      -0.00057532      -0.00657700       0.01009996
Cu       1.24014973       6.26707319      13.55807207  T       0.00203564       0.02267070       0.01670465
Cu       3.74163746       6.26232707      13.62120011  T      -0.02230228       0.00779469       0.01182589
Cu       6.26180982       6.24213362      13.58673332  T      -0.00082001      -0.00235028      -0.04079646
Cu       8.74907395       6.24403442      13.56669206  T      -0.00566796      -0.00293160      -0.03106649
Cu      11.24908565       6.24698612      13.62775786  T       0.00832244       0.00021068       0.01495811
Cu       1.26040300       8.75717639      13.59781063  T       0.00342880       0.01494949       0.00910470
Cu       3.76641947       8.73776100      13.62807195  T      -0.01189296       0.00728154       0.00455792
Cu       6.28047779       8.73466601      13.61555452  T       0.00392874       0.00920930       0.00002354
Cu       8.75979143       8.73429293      13.61532597  T      -0.01678421       0.01322633      -0.00200747
Cu      11.27169740       8.73500467      13.62476448  T       0.01043193       0.01409847       0.00394434
Cu       1.25062503      11.26716341      13.60064355  T      -0.00076160       0.00717273      -0.02495052
Cu       3.75059443      11.26598436      13.57804727  T      -0.01029595       0.00629556      -0.00800358
Cu       6.25666283      11.26279562      13.57637961  T      -0.00133303       0.00841138       0.00401952
Cu       8.76244201      11.26347006      13.58206013  T      -0.00170110       0.00826263       0.00058945
Cu      11.26638472      11.26729119      13.57846109  T       0.01316759       0.01010582      -0.00690590
Cu       0.00140307       0.01286883      15.39594723  T      -0.01984917       0.02023937      -0.08325339
Cu       2.50427160       0.01208801      15.39490422  T       0.01708507       0.01314100      -0.08290760
Cu       5.00338947      12.48161840      15.37763210  T       0.00775813       0.00351055      -0.05334140
Cu       7.50897504      12.49850510      15.36970965  T      -0.00229650      -0.00147594      -0.06009144
Cu      10.01847935      12.49521949      15.37533650  T      -0.00840436       0.00639628      -0.05726233
Cu       0.04399690       2.48240363      15.37329224  T       0.01203512       0.00683044      -0.05184507
Cu       2.51888004       2.48568134      15.37475261  T      -0.00801185      -0.00269941      -0.04571077
Cu       4.99348823       2.42012334      15.48855604  T      -0.03652855      -0.06251646      -0.06587913
Cu       7.54088730       2.51728649      15.48854490  T       0.01603019      -0.06454179      -0.11231190
Cu      10.09016690       2.45935021      15.46107423  T       0.04973770      -0.04872498      -0.06199168
Cu      12.48276454       4.98033092      15.42622298  T      -0.03008116      -0.02813591      -0.08009597
Cu       2.42398802       4.96828922      15.44826599  T      -0.00241223      -0.04248772      -0.07328559
Pd       4.92974630       5.00096703      15.53750252  T       0.03523920      -0.00541679      -0.06789073
Y        7.48969169       5.00050222      17.25902455  T      -0.00492296       0.01742016       0.08155489
Cu       9.98810970       5.00387030      15.47487790  T       0.09563001      -0.00648464      -0.11673446
Cu      12.50295799       7.56771967      15.44525894  T      -0.08950916       0.03434128      -0.08726959
Cu       2.55769391       7.54547273      15.45213711  T       0.06994182       0.03398057      -0.07046894
Cu       5.00951201       7.58692254      15.47369315  T      -0.02884632       0.07501151      -0.07151597
Cu       7.54158227       7.49914201      15.48372517  T       0.00999832       0.06759415      -0.11425415
Cu      10.06282041       7.55619383      15.44995313  T       0.00987001       0.05975698      -0.08614770
Cu      12.50820872      10.05450272      15.38023242  T      -0.00790287      -0.00078731      -0.06666519
Cu       2.51461888      10.04629478      15.37794518  T       0.00585989      -0.00850493      -0.06685553
Cu       5.00668170      10.03888493      15.37272226  T       0.00957937      -0.01647266      -0.04663999
Cu       7.50899569      10.03100126      15.36913334  T      -0.00061079      -0.01652070      -0.07174158
Cu      10.01520689      10.03066586      15.37322188  T      -0.00227109      -0.01731688      -0.05244927
O        6.14436073       3.42075555      16.66510541  T      -0.09980225       0.02316474       0.10504265
O        6.14491227       6.57730933      16.64398799  T      -0.08600915      -0.05499765       0.12162459
O        8.97247157       6.42043476      16.52927746  T       0.03548595       0.06390981       0.09260643
O        8.96630022       3.58389834      16.53310277  T       0.06260166      -0.08675342       0.10119096
C        1.18669137       5.67571165      16.85370011  T       0.02119753       0.24767009       0.30368900
O        1.24811762       7.02840027      16.92067598  T      -0.00646209      -0.50598050       0.10972014
H        1.12881392       3.77699852      17.95161139  T      -0.01295548       0.21411705      -0.00939805
C        1.11969325       4.89153916      18.13348028  T      -0.00221232       0.08560697      -0.17063920
O        1.05031762       5.37390885      19.26352226  T       0.01966483      -0.08717424      -0.28530823
109
Lattice="12.51515363 0.0 0.0 0.0 12.51515363 0.0 0.0 0.0 25.30973" Properties=species:S:1:pos:R:3:move_mask:L:1:forces:R:3 energy=-453.26825615 stress="0.008488359699824675 4.2584843090477834e-05 3.5705738841349094e-06 4.2584843090477834e-05 0.00838325806008416 3.1257072004330174e-05 3.5705738841349094e-06 3.1257072004330174e-05 0.003329425789109605" free_energy=-453.26900411 pbc="T T T"
Cu       1.25151999       1.25151999      10.00000011  F      -0.00062198      -0.00141109      -0.05709594
Cu       3.75454997       1.25151999      10.00000011  F       0.00730309       0.00921272      -0.06718615
Cu       6.25757994       1.25151999      10.00000011  F       0.00195861       0.01784323      -0.06539914
Cu       8.76061004       1.25151999      10.00000011  F      -0.00311366       0.01564258      -0.05815449
Cu      11.26364002       1.25151999      10.00000011  F      -0.00715388       0.00446489      -0.06486467
Cu       1.25151999       3.75454997      10.00000011  F      -0.00010741       0.00693675      -0.06549291
Cu       3.75454997       3.75454997      10.00000011  F       0.00691934      -0.01369738      -0.06557192
Cu       6.25757994       3.75454997      10.00000011  F      -0.01117203      -0.02564047      -0.07115120
Cu       8.76061004       3.75454997      10.00000011  F       0.01656400      -0.02535927      -0.07539068
Cu      11.26364002       3.75454997      10.00000011  F      -0.00904976       0.00210365      -0.06276490
Cu       1.25151999       6.25757994      10.00000011  F      -0.00060613      -0.00702634      -0.06512447
Cu       3.75454997       6.25757994      10.00000011  F       0.01236198       0.01250770      -0.04995280
Cu       6.25757994       6.25757994      10.00000011  F      -0.01938664       0.02069515      -0.07937293
Cu       8.76061004       6.25757994      10.00000011  F       0.01984134       0.01660586      -0.07798157
Cu      11.26364002       6.25757994      10.00000011  F      -0.00986401      -0.00324544      -0.04771266
Cu       1.25151999       8.76061004      10.00000011  F      -0.00126705       0.00851947      -0.06193701
Cu       3.75454997       8.76061004      10.00000011  F       0.00074092      -0.01118078      -0.05781725
Cu       6.25757994       8.76061004      10.00000011  F      -0.00205097      -0.01556120      -0.05950194
Cu       8.76061004       8.76061004      10.00000011  F       0.00023675      -0.00965669      -0.04532715
Cu      11.26364002       8.76061004      10.00000011  F      -0.00020016      -0.00538522      -0.05988391
Cu       1.25151999      11.26364002      10.00000011  F      -0.00560380      -0.00763953      -0.01448369
Cu       3.75454997      11.26364002      10.00000011  F      -0.00712594       0.00241033      -0.06417450
Cu       6.25757994      11.26364002      10.00000011  F       0.01565154       0.00197632      -0.05778968
Cu       8.76061004      11.26364002      10.00000011  F      -0.02149059       0.00264499      -0.05641263
Cu      11.26364002      11.26364002      10.00000011  F       0.01714308       0.00168304      -0.06616683
Cu       0.00000000       0.00000000      11.76991004  F      -0.00589509       0.05919399       0.12428242
Cu       2.50302998       0.00000000      11.76991004  F       0.02736965       0.03978604       0.11618194
Cu       5.00605995       0.00000000      11.76991004  F       0.04774602       0.11303605       0.10248893
Cu       7.50909005       0.00000000      11.76991004  F       0.01729494       0.04961807       0.13066295
Cu      10.01212003       0.00000000      11.76991004  F      -0.04395246       0.11225753       0.11546711
Cu       0.00000000       2.50302998      11.76991004  F      -0.09580547       0.03475412       0.11376281
Cu       2.50302998       2.50302998      11.76991004  F       0.08435322       0.02851602       0.10154129
Cu       5.00605995       2.50302998      11.76991004  F       0.00017128      -0.04937251       0.10853864
Cu       7.50909005       2.50302998      11.76991004  F      -0.03066844      -0.00205347       0.13493803
Cu      10.01212003       2.50302998      11.76991004  F       0.04206028      -0.05590605       0.08818804
Cu       0.00000000       5.00605995      11.76991004  F      -0.12146412      -0.00648467       0.08699843
Cu       2.50302998       5.00605995      11.76991004  F       0.10259306      -0.00525991       0.10502734
Cu       5.00605995       5.00605995      11.76991004  F      -0.06475051       0.02041019       0.16802129
Cu       7.50909005       5.00605995      11.76991004  F      -0.05967495      -0.00106838       0.16131246
Cu      10.01212003       5.00605995      11.76991004  F       0.05808183       0.01998434       0.10901397
Cu       0.00000000       7.50909005      11.76991004  F      -0.10213988      -0.00564045       0.10045456
Cu       2.50302998       7.50909005      11.76991004  F       0.08622343      -0.00068363       0.09198447
Cu       5.00605995       7.50909005      11.76991004  F      -0.03144556       0.03352869       0.11115190
Cu       7.50909005       7.50909005      11.76991004  F      -0.03043153       0.00337306       0.13726194
Cu      10.01212003       7.50909005      11.76991004  F       0.07574455       0.04593472       0.08378138
Cu       0.00000000      10.01212003      11.76991004  F      -0.02434485      -0.05916271       0.11632607
Cu       2.50302998      10.01212003      11.76991004  F       0.03893907      -0.04481195       0.11692281
Cu       5.00605995      10.01212003      11.76991004  F      -0.00018609      -0.12121077       0.16116565