108
Lattice="12.51515363 0.0 0.0 0.0 12.51515363 0.0 0.0 0.0 25.30973" Properties=species:S:1:pos:R:3:move_mask:L:1:forces:R:3 energy=-445.24532294000005 stress="0.008373489199524837 3.144800601000007e-05 4.214927313461895e-05 3.144800601000007e-05 0.008124877932309421 0.0001125490583615936 4.214927313461895e-05 0.0001125490583615936 0.003087019886440725" free_energy=-445.2459481 pbc="T T T"
Cu       1.25151999       1.25151999      10.00000011  F       0.00440925       0.00579873      -0.06296923
Cu       3.75454997       1.25151999      10.00000011  F       0.00237927       0.01746515      -0.06902694
Cu       6.25757994       1.25151999      10.00000011  F       0.00199383       0.01701868      -0.06353226
Cu       8.76061004       1.25151999      10.00000011  F       0.00209168      -0.00110900      -0.04728687
Cu      11.26364002       1.25151999      10.00000011  F      -0.01305778      -0.00473551      -0.07180029
Cu       1.25151999       3.75454997      10.00000011  F      -0.00277053       0.00169159      -0.06535172
Cu       3.75454997       3.75454997      10.00000011  F       0.01080002      -0.02072795      -0.04721984
Cu       6.25757994       3.75454997      10.00000011  F      -0.01650206      -0.02475712      -0.07611040
Cu       8.76061004       3.75454997      10.00000011  F       0.00674858      -0.01578755      -0.06993413
Cu      11.26364002       3.75454997      10.00000011  F       0.00500748       0.00013593      -0.05748920
Cu       1.25151999       6.25757994      10.00000011  F      -0.00506083      -0.00743179      -0.05592091
Cu       3.75454997       6.25757994      10.00000011  F       0.01292884       0.01552677      -0.03821462
Cu       6.25757994       6.25757994      10.00000011  F      -0.01657857       0.02158223      -0.07557777
Cu       8.76061004       6.25757994      10.00000011  F       0.00721956       0.01804841      -0.08112076
Cu      11.26364002       6.25757994      10.00000011  F       0.00285113      -0.00546910      -0.05079492
Cu       1.25151999       8.76061004      10.00000011  F       0.00590926       0.00958197      -0.06047923
Cu       3.75454997       8.76061004      10.00000011  F      -0.00865163      -0.01027797      -0.05932977
Cu       6.25757994       8.76061004      10.00000011  F       0.01078621      -0.01515696      -0.06283883
Cu       8.76061004       8.76061004      10.00000011  F      -0.00507503      -0.00645910      -0.04334597
Cu      11.26364002       8.76061004      10.00000011  F      -0.00459272       0.00525271      -0.07155280
Cu       1.25151999      11.26364002      10.00000011  F       0.00781543      -0.01051568      -0.02100831
Cu       3.75454997      11.26364002      10.00000011  F      -0.01478317      -0.00230383      -0.06596479
Cu       6.25757994      11.26364002      10.00000011  F       0.01035089       0.00242242      -0.06346534
Cu       8.76061004      11.26364002      10.00000011  F      -0.00318123       0.00537651      -0.07634032
Cu      11.26364002      11.26364002      10.00000011  F      -0.00294947       0.00398299      -0.04788248
Cu       0.00000000       0.00000000      11.76991004  F      -0.02419555       0.06703879       0.13564267
Cu       2.50302998       0.00000000      11.76991004  F       0.02943681       0.05605081       0.11191455
Cu       5.00605995       0.00000000      11.76991004  F       0.07254788       0.09129070       0.10073618
Cu       7.50909005       0.00000000      11.76991004  F       0.01631235       0.09050691       0.12318121
Cu      10.01212003       0.00000000      11.76991004  F      -0.05032579       0.09313530       0.12784715
Cu       0.00000000       2.50302998      11.76991004  F      -0.07716815       0.04206904       0.11415845
Cu       2.50302998       2.50302998      11.76991004  F       0.08275540       0.02055527       0.08765670
Cu       5.00605995       2.50302998      11.76991004  F      -0.02413812      -0.00767116       0.11107299
Cu       7.50909005       2.50302998      11.76991004  F      -0.01569219      -0.02822159       0.14009110
Cu      10.01212003       2.50302998      11.76991004  F       0.04034051      -0.05035478       0.10846391
Cu       0.00000000       5.00605995      11.76991004  F      -0.07142614       0.02217877       0.09261692
Cu       2.50302998       5.00605995      11.76991004  F       0.09454118       0.04224567       0.15391761
Cu       5.00605995       5.00605995      11.76991004  F      -0.07975675       0.02075742       0.19170234
Cu       7.50909005       5.00605995      11.76991004  F      -0.05431514      -0.00648983       0.14639017
Cu      10.01212003       5.00605995      11.76991004  F       0.03648462      -0.00505281       0.10210883
Cu       0.00000000       7.50909005      11.76991004  F      -0.06245391      -0.03256267       0.12449190
Cu       2.50302998       7.50909005      11.76991004  F       0.08277046      -0.03664654       0.10570085
Cu       5.00605995       7.50909005      11.76991004  F      -0.04896700       0.02373727       0.11712133
Cu       7.50909005       7.50909005      11.76991004  F      -0.01867141       0.02019922       0.11743152
Cu      10.01212003       7.50909005      11.76991004  F       0.04625051       0.04418909       0.08859528
Cu       0.00000000      10.01212003      11.76991004  F       0.00810767      -0.04953587       0.14073770
Cu       2.50302998      10.01212003      11.76991004  F       0.03236866      -0.01882297       0.08706151
Cu       5.00605995      10.01212003      11.76991004  F       0.02495239      -0.09216483       0.12888074
Cu       7.50909005      10.01212003      11.76991004  F       0.03284931      -0.07389713       0.11488007
Cu      10.01212003      10.01212003      11.76991004  F      -0.06234282      -0.06963143       0.12029837
Cu       1.26093339       1.25427395      13.58415451  T      -0.00344743      -0.01561634      -0.00343131
Cu       3.78678049       1.26902381      13.60926075  T      -0.00683797      -0.00870903      -0.01732223
Cu       6.28326304       1.27865410      13.62678141  T      -0.00336003      -0.00990871      -0.00484020
Cu       8.75721694       1.28131582      13.62886921  T       0.00575432      -0.00844815      -0.00850211
Cu      11.25541494       1.26386069      13.61361478  T       0.01189163      -0.01015433      -0.01941564
Cu       1.25306299       3.76855480      13.58044588  T       0.00777686       0.00047882       0.01246456
Cu       3.75036790       3.76522615      13.62223351  T      -0.02086236      -0.00252324      -0.01034096
Cu       6.26496576       3.76017803      13.58553111  T       0.00190094       0.00323473      -0.04754708
Cu       8.74233492       3.76358391      13.57066265  T      -0.00072422       0.00391310      -0.04322108
Cu      11.23414793       3.76183103      13.61639025  T       0.00041270       0.00345032       0.00464899
Cu       1.25856853       6.26477478      13.59319439  T       0.00651927       0.00156879       0.00411669
Cu       3.74306118       6.27019297      13.63935579  T      -0.01439942       0.00998386      -0.00305485
Cu       6.26642603       6.24691265      13.57975669  T       0.00757059      -0.00040497      -0.04749987
Cu       8.74414911       6.24669902      13.56660854  T      -0.00416979      -0.00345534      -0.04248241
Cu      11.23346498       6.24592033      13.61191777  T      -0.00523787      -0.00743424       0.00715058
Cu       1.27477027       8.76689928      13.59372994  T      -0.00435694       0.01084288      -0.00320592
Cu       3.76953636       8.74717728      13.62152002  T      -0.00391004       0.00409700      -0.00295173
Cu       6.28225307       8.73898111      13.61320704  T       0.00340917       0.00640659       0.00190635
Cu       8.75647654       8.73187563      13.62429068  T      -0.00994955       0.01608103      -0.00569545
Cu      11.24938438       8.75950471      13.60036590  T       0.01064644       0.01067429      -0.01175858
Cu       1.24666424      11.27460792      13.59869799  T      -0.01529669      -0.00092879      -0.01260160
Cu       3.75046315      11.27246395      13.57614373  T      -0.01512506      -0.00327044      -0.00309650
Cu       6.25802235      11.26756790      13.57675799  T      -0.00440417      -0.00112161      -0.00676514
Cu       8.76296314      11.26469367      13.58376980  T       0.00546528      -0.00273985      -0.00962090
Cu      11.26700309      11.27024176      13.58801045  T       0.02749648       0.00431529      -0.00814765
Cu       0.00157290       0.00817690      15.40133567  T      -0.00819384       0.01334330      -0.09545274
Cu       2.50795506       0.02286131      15.39666957  T       0.00831970       0.00919984      -0.09382639
Cu       5.00179041      12.48330544      15.37836481  T       0.01424997       0.00075842      -0.05103450
Cu       7.50793265      12.49361317      15.37436056  T      -0.00630633       0.00467082      -0.05477581
Cu      10.01770291      12.49686824      15.38379274  T      -0.01253485       0.00584849      -0.06243510
Cu       0.05013395       2.50362457      15.36974154  T       0.00778428       0.01001879      -0.05365496
Cu       2.51699000       2.47665542      15.37615603  T      -0.00460468       0.00611909      -0.04781005
Cu       4.99305245       2.42251474      15.49014296  T      -0.04975783      -0.06898456      -0.09025150
Cu       7.54177926       2.50955538      15.50104943  T       0.02412442      -0.07649723      -0.13576643
Cu      10.09114821       2.45852158      15.46541965  T       0.05556997      -0.05243275      -0.08173957
Cu      12.47282738       5.00828852      15.36460720  T       0.00721966       0.00370821      -0.07629123
Cu       2.40471919       4.94808438      15.48894859  T      -0.03255953      -0.03183106      -0.05974394
Pd       4.99062363       5.00404764      15.51061524  T       0.00479764      -0.00233085      -0.08052090
Y        7.48004388       4.99864385      17.25114538  T      -0.01880833       0.01446752       0.07801474
Cu       9.96785793       5.00614468      15.46637510  T       0.10335957      -0.00192904      -0.13983982
Cu      12.51473112       7.53200354      15.32864815  T      -0.00412236      -0.00961956      -0.05675232
Cu       2.50825655       7.62049256      15.45874801  T       0.00502029       0.00520155      -0.06623331
Cu       5.03680743       7.58955285      15.45239906  T      -0.04616371       0.07371194      -0.09573341
Cu       7.55314702       7.49724020      15.49742381  T       0.03045300       0.07608191      -0.12080930
Cu      10.07283329       7.55869774      15.46196538  T       0.05003412       0.05729586      -0.08460542
Cu      12.51471948      10.01884867      15.38846820  T      -0.00881253      -0.00941821      -0.08948742
Cu       2.50713182      10.08098841      15.38222480  T       0.01137697      -0.00436621      -0.07682396
Cu       5.00490480      10.04191773      15.36794530  T       0.01295085      -0.01325485      -0.04836207
Cu       7.50629204      10.02760039      15.37097893  T      -0.00464837      -0.01894050      -0.06222428
Cu      10.01659907      10.03422855      15.37973761  T      -0.01302825      -0.01728914      -0.06156851
O        6.14379817       3.39933537      16.68385562  T      -0.10016346       0.03252418       0.12472944
O        6.14687590       6.59305227      16.66871382  T      -0.10881968      -0.04126773       0.13203995
O        8.98194154       6.41550529      16.54802032  T       0.03252180       0.08796983       0.11029209
O        8.97567182       3.58428593      16.54189284  T       0.05597160      -0.09862566       0.09860240
C        2.35138836       5.72383380      17.25726198  T       0.01284799      -0.16327481       0.60696418
O        2.31915947       4.98441599      18.40867297  T       0.00865244       0.15906299      -0.77086164
O        2.39127516       6.97966939      17.40032675  T      -0.00565856      -0.25696991       0.04485784
H        2.33601325       5.63509660      19.14457159  T      -0.00618728       0.14466251       0.25417564
108
Lattice="12.51515363 0.0 0.0 0.0 12.51515363 0.0 0.0 0.0 25.30973" Properties=species:S:1:pos:R:3:move_mask:L:1:forces:R:3 energy=-445.25629121 stress="0.00841612021105832 2.9140495120124528e-05 4.062630121733955e-05 2.9140495120124528e-05 0.008126251694709537 0.000199890658646665 4.062630121733955e-05 0.000199890658646665 0.0030681384163161046" free_energy=-445.25691843 pbc="T T T"
Cu       1.25151999       1.25151999      10.00000011  F       0.00425931       0.00629704      -0.06374291
Cu       3.75454997       1.25151999      10.00000011  F       0.00213338       0.01833596      -0.06904515
Cu       6.25757994       1.25151999      10.00000011  F       0.00181677       0.01761487      -0.06384195
Cu       8.76061004       1.25151999      10.00000011  F       0.00235119      -0.00063527      -0.04757423
Cu      11.26364002       1.25151999      10.00000011  F      -0.01269525      -0.00428350      -0.07322506
Cu       1.25151999       3.75454997      10.00000011  F      -0.00269654       0.00169760      -0.06540028
Cu       3.75454997       3.75454997      10.00000011  F       0.01071455      -0.02043428      -0.04707568
Cu       6.25757994       3.75454997      10.00000011  F      -0.01673996      -0.02443878      -0.07609954
Cu       8.76061004       3.75454997      10.00000011  F       0.00676584      -0.01552079      -0.07021860
Cu      11.26364002       3.75454997      10.00000011  F       0.00529070       0.00010825      -0.05772525
Cu       1.25151999       6.25757994      10.00000011  F      -0.00488155      -0.00766928      -0.05578551
Cu       3.75454997       6.25757994      10.00000011  F       0.01283596       0.01523623      -0.03799069
Cu       6.25757994       6.25757994      10.00000011  F      -0.01675373       0.02131110      -0.07554410
Cu       8.76061004       6.25757994      10.00000011  F       0.00715703       0.01783116      -0.08134072
Cu      11.26364002       6.25757994      10.00000011  F       0.00305272      -0.00557006      -0.05097329
Cu       1.25151999       8.76061004      10.00000011  F       0.00585836       0.00906629      -0.06033975
Cu       3.75454997       8.76061004      10.00000011  F      -0.00864832      -0.01111218      -0.05920407
Cu       6.25757994       8.76061004      10.00000011  F       0.01059762      -0.01572662      -0.06298949
Cu       8.76061004       8.76061004      10.00000011  F      -0.00486535      -0.00699967      -0.04364467
Cu      11.26364002       8.76061004      10.00000011  F      -0.00449985       0.00483966      -0.07258531
Cu       1.25151999      11.26364002      10.00000011  F       0.00744222      -0.01026629      -0.02097863
Cu       3.75454997      11.26364002      10.00000011  F      -0.01496599      -0.00235169      -0.06381195
Cu       6.25757994      11.26364002      10.00000011  F       0.01034171       0.00234617      -0.06284919
Cu       8.76061004      11.26364002      10.00000011  F      -0.00289821       0.00535997      -0.07585847
Cu      11.26364002      11.26364002      10.00000011  F      -0.00272624       0.00405538      -0.04808748
Cu       0.00000000       0.00000000      11.76991004  F      -0.02385953       0.06768366       0.13406183
Cu       2.50302998       0.00000000      11.76991004  F       0.02929210       0.05647841       0.11132438
Cu       5.00605995       0.00000000      11.76991004  F       0.07219853       0.09156489       0.10064239
Cu       7.50909005       0.00000000      11.76991004  F       0.01624356       0.09061854       0.12280374
Cu      10.01212003       0.00000000      11.76991004  F      -0.05000189       0.09331932       0.12704024
Cu       0.00000000       2.50302998      11.76991004  F      -0.07673417       0.04258800       0.11354413
Cu       2.50302998       2.50302998      11.76991004  F       0.08231118       0.02103798       0.08734903
Cu       5.00605995       2.50302998      11.76991004  F      -0.02457175      -0.00745804       0.11021302
Cu       7.50909005       2.50302998      11.76991004  F      -0.01603046      -0.02832670       0.13877647
Cu      10.01212003       2.50302998      11.76991004  F       0.04109948      -0.05013099       0.10745234
Cu       0.00000000       5.00605995      11.76991004  F      -0.07086608       0.02219256       0.09278361
Cu       2.50302998       5.00605995      11.76991004  F       0.09445770       0.04229540       0.15370960
Cu       5.00605995       5.00605995      11.76991004  F      -0.08085957       0.02093469       0.19068205
Cu       7.50909005       5.00605995      11.76991004  F      -0.05462017      -0.00647860       0.14392472
Cu      10.01212003       5.00605995      11.76991004  F       0.03724000      -0.00504172       0.10068550
Cu       0.00000000       7.50909005      11.76991004  F      -0.06208389      -0.03322994       0.12429651
Cu       2.50302998       7.50909005      11.76991004  F       0.08268151      -0.03693830       0.10516562
Cu       5.00605995       7.50909005      11.76991004  F      -0.04955552       0.02353719       0.11665058
Cu       7.50909005       7.50909005      11.76991004  F      -0.01892090       0.02046516       0.11598664
Cu      10.01212003       7.50909005      11.76991004  F       0.04674469       0.04417826       0.08795052
Cu       0.00000000      10.01212003      11.76991004  F       0.00829901      -0.05009893       0.13954590
Cu       2.50302998      10.01212003      11.76991004  F       0.03232813      -0.01948457       0.08689636
Cu       5.00605995      10.01212003      11.76991004  F       0.02476271      -0.09269774       0.12889073
Cu       7.50909005      10.01212003      11.76991004  F       0.03251425      -0.07420076       0.11442843
Cu      10.01212003      10.01212003      11.76991004  F      -0.06194274      -0.06999518       0.11975993
Cu       1.26090010       1.25412340      13.58412135  T      -0.00269361      -0.01329483      -0.00642238
Cu       3.78671454       1.26893984      13.60909345  T      -0.00695600      -0.00795900      -0.01993390
Cu       6.28323063       1.27855861      13.62673459  T      -0.00353010      -0.00898733      -0.00785238
Cu       8.75727250       1.28123435      13.62878721  T       0.00579597      -0.00800754      -0.01195961
Cu      11.25552957       1.26376269      13.61342749  T       0.01174952      -0.00898143      -0.02242189
Cu       1.25313795       3.76855943      13.58056610  T       0.00704302       0.00024004       0.00746467
Cu       3.75016654       3.76520174      13.62213379  T      -0.01870840      -0.00205782      -0.01255265
Cu       6.26498416       3.76020920      13.58507224  T       0.00097997       0.00266310      -0.04467266
Cu       8.74232791       3.76362170      13.57024580  T      -0.00058382       0.00377362      -0.04042210
Cu      11.23415194       3.76186433      13.61643505  T       0.00111447       0.00224025       0.00023943
Cu       1.25863148       6.26478992      13.59323412  T       0.00747972       0.00106813       0.00284872
Cu       3.74292226       6.27028933      13.63932618  T      -0.01416621       0.00852846      -0.00395792
Cu       6.26649912       6.24690877      13.57929833  T       0.00632084       0.00002968      -0.04433280
Cu       8.74410881       6.24666573      13.56619878  T      -0.00374839      -0.00306366      -0.03967216
Cu      11.23341442       6.24584849      13.61198686  T      -0.00463349      -0.00614860       0.00255576
Cu       1.27472822       8.76700391      13.59369906  T      -0.00357996       0.00929810      -0.00570400
Cu       3.76949869       8.74721683      13.62149168  T      -0.00410984       0.00443108      -0.00696065
Cu       6.28228598       8.73904293      13.61322552  T       0.00269159       0.00555610      -0.00184878
Cu       8.75638055       8.73203081      13.62423576  T      -0.00849516       0.01467273      -0.00976259
Cu      11.24948713       8.75960771      13.60025251  T       0.01009860       0.00970582      -0.01532956
Cu       1.24651669      11.27459904      13.59857650  T      -0.01346196      -0.00113499      -0.01489249
Cu       3.75031722      11.27243242      13.57611361  T      -0.01353997      -0.00321428      -0.00543692
Cu       6.25797993      11.26755714      13.57669270  T      -0.00471452      -0.00123235      -0.00868326
Cu       8.76301596      11.26466726      13.58367692  T       0.00522794      -0.00241794      -0.01126569
Cu      11.26726841      11.27028344      13.58793173  T       0.02480063       0.00387296      -0.01030672
Cu       0.00149381       0.00830568      15.40041465  T      -0.00765134       0.01315310      -0.09090134
Cu       2.50803541       0.02295004      15.39576449  T       0.00816244       0.00911443      -0.09018553
Cu       5.00192782      12.48331270      15.37787254  T       0.01333193      -0.00125034      -0.04906149
Cu       7.50787170      12.49365823      15.37383209  T      -0.00625347       0.00255517      -0.05242453
Cu      10.01758201      12.49692468      15.38319037  T      -0.01205738       0.00367048      -0.06017800
Cu       0.05020904       2.50372119      15.36922370  T       0.00871869       0.01011898      -0.05152683
Cu       2.51694557       2.47671436      15.37569489  T      -0.00570581       0.00676000      -0.04599846
Cu       4.99257237       2.42184918      15.48927230  T      -0.03833000      -0.05629550      -0.07896959
Cu       7.54201204       2.50881736      15.49973940  T       0.01925449      -0.06236509      -0.11966388
Cu      10.09168436       2.45801572      15.46463100  T       0.04702368      -0.04335178      -0.07264574
Cu      12.47289709       5.00832432      15.36387120  T       0.00957020       0.00370719      -0.07365668
Cu       2.40440506       4.94777726      15.48837204  T      -0.03080862      -0.01483468      -0.02781760
Pd       4.99066994       5.00402511      15.50983848  T       0.00906602      -0.00190062      -0.07187331
Y        7.47986229       4.99878339      17.25189809  T      -0.00913643       0.01189630       0.06556237
Cu       9.96885514       5.00612603      15.46502584  T       0.08673116      -0.00116012      -0.12225542
Cu      12.51469132       7.53191068      15.32810070  T      -0.00084631      -0.01035668      -0.05373280
Cu       2.50830499       7.62054275      15.45810894  T       0.00230642      -0.00496048      -0.05208918
Cu       5.03636202       7.59026409      15.45147551  T      -0.03502347       0.05870888      -0.08194249
Cu       7.55344088       7.49797422      15.49625830  T       0.02474808       0.06200359      -0.10533443
Cu      10.07331600       7.55925054      15.46114914  T       0.04074969       0.04642663      -0.07473279
Cu      12.51463450      10.01875769      15.38760489  T      -0.00801461      -0.00933560      -0.08542337
Cu       2.50724157      10.08094624      15.38148373  T       0.01077619      -0.00442341      -0.07344172
Cu       5.00502983      10.04178995      15.36747859  T       0.01218522      -0.01051973      -0.04640884
Cu       7.50624723      10.02741755      15.37037858  T      -0.00481348      -0.01619505      -0.05911556
Cu      10.01647330      10.03406172      15.37914359  T      -0.01237198      -0.01448989      -0.05927905
O        6.14283175       3.39964925      16.68505910  T      -0.10020838       0.02603184       0.10926649
O        6.14582600       6.59265416      16.66998791  T      -0.10997488      -0.03327249       0.11549046
O        8.98225529       6.41635407      16.54908460  T       0.03444798       0.08435125       0.09620434
O        8.97621197       3.58333428      16.54284423  T       0.05448210      -0.09339198       0.08654001
C        2.35151226       5.72225839      17.26311840  T       0.01714251      -0.12648378       0.20964212
O        2.31924294       4.98595073      18.40123545  T       0.00569564       0.17413317      -0.23168872
O        2.39122047       6.97719001      17.40075954  T      -0.00060024      -0.11779327       0.06906965
H        2.33595355       5.63649242      19.14702385  T      -0.01134946      -0.05173466       0.04122213
108
Lattice="12.51515363 0.0 0.0 0.0 12.51515363 0.0 0.0 0.0 25.30973" Properties=species:S:1:pos:R:3:move_mask:L:1:forces:R:3 energy=-445.26161822 stress="0.008465411530738523 2.7592064087120653e-05 3.875197602683681e-05 2.7592064087120653e-05 0.008132822574513502 0.00024092920530026 3.875197602683681e-05 0.00024092920530026 0.003059035356259769" free_energy=-445.2622377 pbc="T T T"
Cu       1.25151999       1.25151999      10.00000011  F       0.00422003       0.00605657      -0.06382023
Cu       3.75454997       1.25151999      10.00000011  F       0.00234058       0.01812946      -0.06925727
Cu       6.25757994       1.25151999      10.00000011  F       0.00193627       0.01741433      -0.06379167
Cu       8.76061004       1.25151999      10.00000011  F       0.00223808      -0.00086557      -0.04734606
Cu      11.26364002       1.25151999      10.00000011  F      -0.01275061      -0.00453694      -0.07317286
Cu       1.25151999       3.75454997      10.00000011  F      -0.00268501       0.00148781      -0.06596973
Cu       3.75454997       3.75454997      10.00000011  F       0.01092594      -0.02059720      -0.04763107
Cu       6.25757994       3.75454997      10.00000011  F      -0.01663656      -0.02462289      -0.07644585
Cu       8.76061004       3.75454997      10.00000011  F       0.00668841      -0.01573682      -0.07042289
Cu      11.26364002       3.75454997      10.00000011  F       0.00518580      -0.00008585      -0.05790419
Cu       1.25151999       6.25757994      10.00000011  F      -0.00484714      -0.00747720      -0.05638749
Cu       3.75454997       6.25757994      10.00000011  F       0.01301359       0.01537356      -0.03856291
Cu       6.25757994       6.25757994      10.00000011  F      -0.01664953       0.02144545      -0.07595164
Cu       8.76061004       6.25757994      10.00000011  F       0.00706917       0.01799042      -0.08159154
Cu      11.26364002       6.25757994      10.00000011  F       0.00296523      -0.00544460      -0.05120403
Cu       1.25151999       8.76061004      10.00000011  F       0.00586304       0.00931574      -0.06053032
Cu       3.75454997       8.76061004      10.00000011  F      -0.00842710      -0.01085594      -0.05947233
Cu       6.25757994       8.76061004      10.00000011  F       0.01067875      -0.01547571      -0.06299982
Cu       8.76061004       8.76061004      10.00000011  F      -0.00496396      -0.00675767      -0.04355043
Cu      11.26364002       8.76061004      10.00000011  F      -0.00459444       0.00514374      -0.07256911
Cu       1.25151999      11.26364002      10.00000011  F       0.00734896      -0.01020460      -0.02108394
Cu       3.75454997      11.26364002      10.00000011  F      -0.01470957      -0.00232619      -0.06383601
Cu       6.25757994      11.26364002      10.00000011  F       0.01039097       0.00238568      -0.06265264
Cu       8.76061004      11.26364002      10.00000011  F      -0.00291816       0.00542447      -0.07554815
Cu      11.26364002      11.26364002      10.00000011  F      -0.00278604       0.00411024      -0.04786607
Cu       0.00000000       0.00000000      11.76991004  F      -0.02381056       0.06757993       0.13204803
Cu       2.50302998       0.00000000      11.76991004  F       0.02934624       0.05607748       0.11016293
Cu       5.00605995       0.00000000      11.76991004  F       0.07242648       0.09114695       0.09984170
Cu       7.50909005       0.00000000      11.76991004  F       0.01633034       0.09018455       0.12191135
Cu      10.01212003       0.00000000      11.76991004  F      -0.05022632       0.09282104       0.12600570
Cu       0.00000000       2.50302998      11.76991004  F      -0.07658485       0.04249653       0.11315697
Cu       2.50302998       2.50302998      11.76991004  F       0.08192765       0.02055812       0.08676931
Cu       5.00605995       2.50302998      11.76991004  F      -0.02457455      -0.00837400       0.10906952
Cu       7.50909005       2.50302998      11.76991004  F      -0.01604872      -0.02968298       0.13709535
Cu      10.01212003       2.50302998      11.76991004  F       0.04138168      -0.05081137       0.10637443
Cu       0.00000000       5.00605995      11.76991004  F      -0.07077191       0.02215990       0.09278720
Cu       2.50302998       5.00605995      11.76991004  F       0.09421518       0.04235571       0.15324827
Cu       5.00605995       5.00605995      11.76991004  F      -0.08162401       0.02101539       0.18943436
Cu       7.50909005       5.00605995      11.76991004  F      -0.05458111      -0.00660699       0.14087637
Cu      10.01212003       5.00605995      11.76991004  F       0.03792268      -0.00510965       0.09902727
Cu       0.00000000       7.50909005      11.76991004  F      -0.06212384      -0.03315277       0.12410335
Cu       2.50302998       7.50909005      11.76991004  F       0.08258283      -0.03628333       0.10458203
Cu       5.00605995       7.50909005      11.76991004  F      -0.04970675       0.02449482       0.11589663
Cu       7.50909005       7.50909005      11.76991004  F      -0.01889035       0.02189738       0.11409170
Cu      10.01212003       7.50909005      11.76991004  F       0.04695563       0.04505379       0.08720178
Cu       0.00000000      10.01212003      11.76991004  F       0.00822992      -0.04992953       0.13778410
Cu       2.50302998      10.01212003      11.76991004  F       0.03241931      -0.01926911       0.08604239
Cu       5.00605995      10.01212003      11.76991004  F       0.02506797      -0.09240713       0.12825767
Cu       7.50909005      10.01212003      11.76991004  F       0.03233299      -0.07365752       0.11335526
Cu      10.01212003      10.01212003      11.76991004  F      -0.06199207      -0.06950365       0.11891052