108
Lattice="12.51515363 0.0 0.0 0.0 12.51515363 0.0 0.0 0.0 25.30973" Properties=species:S:1:pos:R:3:move_mask:L:1:forces:R:3 energy=-439.34115219 stress="0.008230445737883533 3.1576418818755995e-07 0.0001354167743951142 3.1576418818755995e-07 0.008015314343800466 7.785908143991812e-07 0.0001354167743951142 7.785908143991812e-07 0.0019693637012531797" free_energy=-439.34122713 pbc="T T T"
Cu       1.25151999       1.25151999      10.00000011  F      -0.00607961      -0.00739045      -0.07401616
Cu       3.75454997       1.25151999      10.00000011  F       0.01828148      -0.00721296      -0.06505132
Cu       6.25757994       1.25151999      10.00000011  F      -0.01358816       0.00749910      -0.06092246
Cu       8.76061004       1.25151999      10.00000011  F       0.00298504       0.00613437      -0.04835699
Cu      11.26364002       1.25151999      10.00000011  F      -0.00439945       0.01016832      -0.07115724
Cu       1.25151999       3.75454997      10.00000011  F      -0.00388056       0.00853765      -0.06132071
Cu       3.75454997       3.75454997      10.00000011  F       0.00795195      -0.01479634      -0.05674160
Cu       6.25757994       3.75454997      10.00000011  F      -0.01499111      -0.01821670      -0.08039212
Cu       8.76061004       3.75454997      10.00000011  F       0.02719447      -0.01597366      -0.08901922
Cu      11.26364002       3.75454997      10.00000011  F      -0.01396828       0.00050486      -0.05534475
Cu       1.25151999       6.25757994      10.00000011  F      -0.00414297      -0.00691640      -0.06307652
Cu       3.75454997       6.25757994      10.00000011  F       0.00929639       0.01581661      -0.05702487
Cu       6.25757994       6.25757994      10.00000011  F      -0.01499235       0.02046143      -0.08333793
Cu       8.76061004       6.25757994      10.00000011  F       0.02576298       0.01697353      -0.08955890
Cu      11.26364002       6.25757994      10.00000011  F      -0.01360908       0.00107940      -0.05700985
Cu       1.25151999       8.76061004      10.00000011  F      -0.00569573       0.00379429      -0.07275727
Cu       3.75454997       8.76061004      10.00000011  F       0.01763700       0.00464508      -0.06376270
Cu       6.25757994       8.76061004      10.00000011  F      -0.01356681      -0.01180910      -0.05800671
Cu       8.76061004       8.76061004      10.00000011  F       0.00360272      -0.00878874      -0.04732642
Cu      11.26364002       8.76061004      10.00000011  F      -0.00474833      -0.01375961      -0.06992549
Cu       1.25151999      11.26364002      10.00000011  F      -0.00587479       0.00175141      -0.00714073
Cu       3.75454997      11.26364002      10.00000011  F       0.00632841       0.00131595      -0.06952631
Cu       6.25757994      11.26364002      10.00000011  F      -0.00846372       0.00177460      -0.07895333
Cu       8.76061004      11.26364002      10.00000011  F      -0.00926050       0.00140515      -0.07018691
Cu      11.26364002      11.26364002      10.00000011  F       0.01617517       0.00182030      -0.05808711
Cu       0.00000000       0.00000000      11.76991004  F      -0.01867924       0.04681893       0.04461343
Cu       2.50302998       0.00000000      11.76991004  F       0.05167667       0.01691980       0.05224376
Cu       5.00605995       0.00000000      11.76991004  F       0.05039700       0.10629467       0.07036827
Cu       7.50909005       0.00000000      11.76991004  F       0.00447340       0.07740303       0.07014861
Cu      10.01212003       0.00000000      11.76991004  F      -0.05878579       0.07620633       0.07418853
Cu       0.00000000       2.50302998      11.76991004  F      -0.06077107       0.06102384       0.06625487
Cu       2.50302998       2.50302998      11.76991004  F       0.03622426       0.06427224       0.08360179
Cu       5.00605995       2.50302998      11.76991004  F       0.00380965      -0.05285926       0.04528872
Cu       7.50909005       2.50302998      11.76991004  F      -0.03848629      -0.03363290       0.06469751
Cu      10.01212003       2.50302998      11.76991004  F       0.07969034      -0.03341169       0.03097630
Cu       0.00000000       5.00605995      11.76991004  F      -0.08325633       0.00085066       0.06261729
Cu       2.50302998       5.00605995      11.76991004  F       0.06396455       0.00103770       0.08679717
Cu       5.00605995       5.00605995      11.76991004  F      -0.03186661       0.00244511       0.10019673
Cu       7.50909005       5.00605995      11.76991004  F      -0.04594497       0.00229714       0.07668499
Cu      10.01212003       5.00605995      11.76991004  F       0.06883698       0.00027758       0.05421334
Cu       0.00000000       7.50909005      11.76991004  F      -0.06040927      -0.06551003       0.06720629
Cu       2.50302998       7.50909005      11.76991004  F       0.03646050      -0.06695458       0.08292891
Cu       5.00605995       7.50909005      11.76991004  F       0.00560469       0.04902619       0.04698742
Cu       7.50909005       7.50909005      11.76991004  F      -0.03922743       0.02988582       0.06627118
Cu      10.01212003       7.50909005      11.76991004  F       0.08032368       0.03142362       0.03114070
Cu       0.00000000      10.01212003      11.76991004  F      -0.01786753      -0.04485615       0.04238243
Cu       2.50302998      10.01212003      11.76991004  F       0.05272304      -0.01650407       0.05268321
Cu       5.00605995      10.01212003      11.76991004  F       0.05037591      -0.10344859       0.06935912
Cu       7.50909005      10.01212003      11.76991004  F       0.00464495      -0.07398726       0.06834040
Cu      10.01212003      10.01212003      11.76991004  F      -0.05936683      -0.07431042       0.07381074
Cu       1.26198003       1.24617415      13.57005902  T      -0.00021952      -0.00015884       0.00000173
Cu       3.78071052       1.25816291      13.59943830  T       0.00038777      -0.00001862      -0.00025107
Cu       6.27729744       1.28124836      13.61679267  T       0.00093044       0.00020724       0.00020706
Cu       8.75197459       1.27905471      13.60950119  T       0.00062018       0.00040719       0.00074091
Cu      11.25792535       1.26389172      13.59012913  T      -0.00050470       0.00028496       0.00071800
Cu       1.23374923       3.76622536      13.58650351  T      -0.00072032      -0.00008546      -0.00026561
Cu       3.77166732       3.74601376      13.59708247  T      -0.00029337      -0.00004995      -0.00048184
Cu       6.27338395       3.76236280      13.56815977  T       0.00025563       0.00001735       0.00033720
Cu       8.74837248       3.76184280      13.54909446  T      -0.00002966       0.00014927       0.00083099
Cu      11.24539005       3.77175292      13.61739656  T      -0.00130085       0.00017479       0.00146068
Cu       1.23373621       6.24563123      13.58640277  T      -0.00057185       0.00017305      -0.00031099
Cu       3.77173490       6.26615583      13.59702552  T      -0.00022621       0.00029428      -0.00051841
Cu       6.27371611       6.24985021      13.56843767  T       0.00022130       0.00014531       0.00028399
Cu       8.74852779       6.25023342      13.54905472  T      -0.00001362      -0.00018612       0.00077910
Cu      11.24543986       6.23956476      13.61671421  T      -0.00121100      -0.00036352       0.00141346
Cu       1.26239141       8.76503202      13.57005522  T      -0.00010096       0.00011709      -0.00000035
Cu       3.78099949       8.75376726      13.59938515  T       0.00044496       0.00002164      -0.00029009
Cu       6.27770681       8.73174609      13.61659298  T       0.00084385      -0.00018068       0.00009083
Cu       8.75216482       8.73357744      13.60918001  T       0.00058118      -0.00044904       0.00058684
Cu      11.25841907       8.74833906      13.58977859  T      -0.00038255      -0.00039813       0.00063194
Cu       1.25078248      11.26361224      13.59121668  T       0.00015432      -0.00007526      -0.00008596
Cu       3.74595068      11.26383738      13.57442368  T       0.00048968      -0.00008081      -0.00018281
Cu       6.25549667      11.26437266      13.56684038  T       0.00081871      -0.00003119      -0.00010072
Cu       8.75793906      11.26393663      13.57159253  T       0.00062841      -0.00006885       0.00003835
Cu      11.27160554      11.26395240      13.56953409  T       0.00006521      -0.00006224       0.00017437
Cu      12.51001904      12.51303844      15.36214229  T       0.00042675      -0.00010209      -0.00019566
Cu       2.50581660       0.00760859      15.36435765  T       0.00057654      -0.00000373      -0.00031373
Cu       5.00502332      12.48435571      15.35855236  T       0.00054378       0.00006014      -0.00052807
Cu       7.50742166      12.50516529      15.34773321  T       0.00039495       0.00026108      -0.00016276
Cu      10.01325402      12.49246603      15.34834975  T       0.00028123       0.00030697       0.00017463
Cu       0.04678577       2.47015567      15.35197360  T      -0.00048405      -0.00003152       0.00007264
Cu       2.51066297       2.50711430      15.34915005  T       0.00004162       0.00001259      -0.00081487
Cu       4.98760348       2.41703485      15.47312292  T      -0.00017454      -0.00031323      -0.00177619
Cu       7.53316858       2.54559163      15.47470706  T       0.00131934       0.00135138       0.00105146
Cu      10.08911538       2.44031404      15.42548217  T      -0.00093544       0.00134419       0.00265712
Cu       0.00019649       5.00671837      15.46494510  T      -0.00227706      -0.00013375      -0.00040401
Cu       2.47910063       5.00591152      15.34400939  T      -0.00138535       0.00006898      -0.00101885
Pd       5.00465250       5.00605207      15.51124722  T      -0.00708143       0.00036285      -0.00343571
Y        7.55403259       5.00629586      17.42821275  T      -0.00349388      -0.00007387      -0.00173330
Cu       9.91976883       5.00566259      15.40978786  T      -0.00415036      -0.00020664       0.00385461
Cu       0.04652170       7.54322163      15.35207509  T      -0.00031502      -0.00011628       0.00003372
Cu       2.51057336       7.50425845      15.34903995  T       0.00021312       0.00012000      -0.00080221
Cu       4.98771586       7.59483450      15.47305611  T      -0.00009840       0.00054201      -0.00173305
Cu       7.53325694       7.46746665      15.47485588  T       0.00128421      -0.00116431       0.00093879
Cu      10.08888097       7.57095996      15.42413063  T      -0.00076743      -0.00152952       0.00236060
Cu      12.51116718      10.01525557      15.36223923  T       0.00043352      -0.00002447      -0.00021464
Cu       2.50704784      10.00466387      15.36408532  T       0.00059050       0.00001287      -0.00033207
Cu       5.00634379      10.04191710      15.35785330  T       0.00051949       0.00010485      -0.00050862
Cu       7.50854677      10.02261786      15.34783166  T       0.00035848      -0.00025591      -0.00023672
Cu      10.01426863      10.03374809      15.34798074  T       0.00026332      -0.00045599       0.00012816
O        6.12364102       3.44806562      16.62141576  T      -0.00040767       0.00257533      -0.00195145
O        6.12379082       6.56435277      16.62136716  T      -0.00037511      -0.00245839      -0.00199727
O        8.98549346       6.44802491      16.48792439  T      -0.00289530      -0.00127747       0.00435781
O        8.98557706       3.56377084      16.48875633  T      -0.00287129       0.00108154       0.00460010
C       12.14414866       5.01615004      17.28079800  T       0.00528293       0.00014446       0.00338769
O        7.82895297       5.00765451      19.42291763  T      -0.02373336       0.00010932      -0.00175290
O       11.92026220       5.02328693      18.41285313  T       0.01329994       0.00040077      -0.00102940
H        8.22718491       5.00760344      20.30118981  T      -0.04774949      -0.00002149       0.01551846
108
Lattice="12.51515363 0.0 0.0 0.0 12.51515363 0.0 0.0 0.0 25.30973" Properties=species:S:1:pos:R:3:move_mask:L:1:forces:R:3 energy=-439.33229665 stress="0.008193358890385825 3.2588791598974256e-07 0.0001364193854550596 3.2588791598974256e-07 0.007978414741576538 9.420746629334413e-07 0.0001364193854550596 9.420746629334413e-07 0.0019330284063523392" free_energy=-439.33237398 pbc="T T T"
Cu       1.25151999       1.25151999      10.00000011  F      -0.00627564      -0.00731300      -0.07384987
Cu       3.75454997       1.25151999      10.00000011  F       0.01823878      -0.00702253      -0.06498973
Cu       6.25757994       1.25151999      10.00000011  F      -0.01379953       0.00763191      -0.06084206
Cu       8.76061004       1.25151999      10.00000011  F       0.00285119       0.00631439      -0.04829762
Cu      11.26364002       1.25151999      10.00000011  F      -0.00473130       0.01021936      -0.07136950
Cu       1.25151999       3.75454997      10.00000011  F      -0.00407874       0.00866400      -0.06124473
Cu       3.75454997       3.75454997      10.00000011  F       0.00771255      -0.01489870      -0.05667324
Cu       6.25757994       3.75454997      10.00000011  F      -0.01516691      -0.01832495      -0.08031024
Cu       8.76061004       3.75454997      10.00000011  F       0.02706399      -0.01603554      -0.08893534
Cu      11.26364002       3.75454997      10.00000011  F      -0.01414391       0.00050868      -0.05527134
Cu       1.25151999       6.25757994      10.00000011  F      -0.00443400      -0.00717798      -0.06300686
Cu       3.75454997       6.25757994      10.00000011  F       0.00894857       0.01558866      -0.05706388
Cu       6.25757994       6.25757994      10.00000011  F      -0.01512241       0.02029022      -0.08347045
Cu       8.76061004       6.25757994      10.00000011  F       0.02576355       0.01676911      -0.08951305
Cu      11.26364002       6.25757994      10.00000011  F      -0.01375290       0.00099577      -0.05691816
Cu       1.25151999       8.76061004      10.00000011  F      -0.00601632       0.00376704      -0.07267609
Cu       3.75454997       8.76061004      10.00000011  F       0.01749884       0.00456892      -0.06404018
Cu       6.25757994       8.76061004      10.00000011  F      -0.01375661      -0.01182055      -0.05860045
Cu       8.76061004       8.76061004      10.00000011  F       0.00357376      -0.00888976      -0.04738919
Cu      11.26364002       8.76061004      10.00000011  F      -0.00501636      -0.01378092      -0.07011162
Cu       1.25151999      11.26364002      10.00000011  F      -0.00623205       0.00182585      -0.00803527
Cu       3.75454997      11.26364002      10.00000011  F       0.00603590       0.00152638      -0.06961245
Cu       6.25757994      11.26364002      10.00000011  F      -0.00868232       0.00192801      -0.07917740
Cu       8.76061004      11.26364002      10.00000011  F      -0.00922595       0.00158137      -0.07015758
Cu      11.26364002      11.26364002      10.00000011  F       0.01609213       0.00185851      -0.05858328
Cu       0.00000000       0.00000000      11.76991004  F      -0.01894598       0.04678507       0.04486862
Cu       2.50302998       0.00000000      11.76991004  F       0.05163192       0.01690207       0.05250089
Cu       5.00605995       0.00000000      11.76991004  F       0.05029704       0.10624095       0.07039398
Cu       7.50909005       0.00000000      11.76991004  F       0.00421313       0.07736691       0.07024083
Cu      10.01212003       0.00000000      11.76991004  F      -0.05899076       0.07621628       0.07432718
Cu       0.00000000       2.50302998      11.76991004  F      -0.06102309       0.06118105       0.06647735
Cu       2.50302998       2.50302998      11.76991004  F       0.03609942       0.06437188       0.08374271
Cu       5.00605995       2.50302998      11.76991004  F       0.00361219      -0.05290279       0.04523036
Cu       7.50909005       2.50302998      11.76991004  F      -0.03866422      -0.03364502       0.06466807
Cu      10.01212003       2.50302998      11.76991004  F       0.07951400      -0.03335492       0.03103175
Cu       0.00000000       5.00605995      11.76991004  F      -0.08348707       0.00084214       0.06270997
Cu       2.50302998       5.00605995      11.76991004  F       0.06373077       0.00101784       0.08677833
Cu       5.00605995       5.00605995      11.76991004  F      -0.03201294       0.00250390       0.10011687
Cu       7.50909005       5.00605995      11.76991004  F      -0.04610480       0.00236710       0.07662652
Cu      10.01212003       5.00605995      11.76991004  F       0.06865231       0.00029253       0.05425303
Cu       0.00000000       7.50909005      11.76991004  F      -0.06068778      -0.06564870       0.06741631
Cu       2.50302998       7.50909005      11.76991004  F       0.03638246      -0.06704479       0.08302657
Cu       5.00605995       7.50909005      11.76991004  F       0.00544644       0.04907478       0.04693082
Cu       7.50909005       7.50909005      11.76991004  F      -0.03938651       0.02991370       0.06626465
Cu      10.01212003       7.50909005      11.76991004  F       0.08007626       0.03139238       0.03119016
Cu       0.00000000      10.01212003      11.76991004  F      -0.01813995      -0.04483965       0.04259678
Cu       2.50302998      10.01212003      11.76991004  F       0.05272015      -0.01648306       0.05290039
Cu       5.00605995      10.01212003      11.76991004  F       0.05030097      -0.10346648       0.06940061
Cu       7.50909005      10.01212003      11.76991004  F       0.00439051      -0.07404986       0.06845297
Cu      10.01212003      10.01212003      11.76991004  F      -0.05963763      -0.07437364       0.07392362
Cu       1.26197791       1.24617252      13.57005902  T      -0.00011044       0.00007877       0.00009780
Cu       3.78071427       1.25816266      13.59943577  T      -0.00033958      -0.00003230       0.00006941
Cu       6.27730633       1.28125037      13.61679470  T      -0.00043184      -0.00010492      -0.00005006
Cu       8.75198060       1.27905859      13.60950828  T      -0.00034761      -0.00013285      -0.00011588
Cu      11.25792047       1.26389448      13.59013596  T      -0.00000621      -0.00004669      -0.00010512
Cu       1.23374234       3.76622448      13.58650098  T      -0.00004613      -0.00002282       0.00008611
Cu       3.77166444       3.74601326      13.59707791  T      -0.00026786      -0.00011156      -0.00000591
Cu       6.27338633       3.76236293      13.56816306  T      -0.00024252      -0.00008838      -0.00021224
Cu       8.74837223       3.76184418      13.54910256  T      -0.00011581      -0.00006396      -0.00030156
Cu      11.24537753       3.77175468      13.61741074  T       0.00019394      -0.00006590      -0.00039373
Cu       1.23373070       6.24563285      13.58639974  T      -0.00013853      -0.00002953       0.00013669
Cu       3.77173277       6.26615871      13.59702046  T      -0.00031871      -0.00005667       0.00005557
Cu       6.27371823       6.24985159      13.56844046  T      -0.00018386       0.00001163      -0.00015735
Cu       8.74852766       6.25023167      13.54906232  T      -0.00002604       0.00006277      -0.00023672
Cu      11.24542809       6.23956125      13.61672788  T       0.00015851       0.00014719      -0.00034108
Cu       1.26239041       8.76503315      13.57005522  T      -0.00020913      -0.00006699       0.00012971
Cu       3.78100375       8.75376751      13.59938236  T      -0.00038524       0.00007402       0.00013680
Cu       6.27771495       8.73174434      13.61659399  T      -0.00034831       0.00012701       0.00005528
Cu       8.75217033       8.73357318      13.60918558  T      -0.00028441       0.00014311      -0.00003030
Cu      11.25841532       8.74833518      13.58978466  T      -0.00005083       0.00009497      -0.00007057
Cu       1.25078385      11.26361161      13.59121567  T      -0.00022614       0.00004451       0.00020252
Cu       3.74595544      11.26383663      13.57442191  T      -0.00037962       0.00008386       0.00014331
Cu       6.25550456      11.26437241      13.56683936  T      -0.00037223       0.00001451       0.00012290
Cu       8.75794507      11.26393600      13.57159304  T      -0.00034486       0.00002514       0.00018578
Cu      11.27160616      11.26395177      13.56953586  T      -0.00018993      -0.00001056       0.00010567
Cu      12.51002317      12.51303744      15.36214026  T      -0.00030781      -0.00002399       0.00016899
Cu       2.50582211       0.00760859      15.36435461  T      -0.00040125      -0.00002627       0.00018774
Cu       5.00502858      12.48435634      15.35854729  T      -0.00036325      -0.00004782       0.00026303
Cu       7.50742541      12.50516779      15.34773169  T      -0.00023933      -0.00012620       0.00016876
Cu      10.01325665      12.49246904      15.34835127  T      -0.00022708      -0.00014974       0.00006273
Cu       0.04678102       2.47015529      15.35197436  T      -0.00004728      -0.00005421       0.00006168
Cu       2.51066334       2.50711442      15.34914220  T      -0.00026906      -0.00005343       0.00032092
Cu       4.98760173       2.41703172      15.47310597  T      -0.00021393      -0.00008124       0.00049823
Cu       7.53318135       2.54560465      15.47471718  T      -0.00038394      -0.00031655      -0.00001048
Cu      10.08910624       2.44032705      15.42550773  T      -0.00019364      -0.00009919      -0.00015557
Cu       0.00017446       5.00671700      15.46494130  T       0.00018760       0.00005899       0.00030217
Cu       2.47908723       5.00591215      15.34399952  T      -0.00037385      -0.00002451       0.00025637
Pd       5.00458416       5.00605557      15.51121407  T       0.00352345      -0.00023021       0.00181010
Y        7.55399880       5.00629524      17.42819605  T      -0.00413952      -0.00004109      -0.00024594
Cu       9.91972878       5.00566059      15.40982506  T       0.00010645       0.00005969      -0.00016477
Cu       0.04651870       7.54322050      15.35207534  T      -0.00013106       0.00009695       0.00005829
Cu       2.51057549       7.50425958      15.34903235  T      -0.00036114       0.00000336       0.00035315
Cu       4.98771486       7.59483975      15.47303940  T      -0.00022678       0.00004610       0.00054930
Cu       7.53326933       7.46745539      15.47486499  T      -0.00030197       0.00026621       0.00005878
Cu      10.08887346       7.57094532      15.42415341  T      -0.00025856       0.00010129      -0.00008209
Cu      12.51117143      10.01525532      15.36223720  T      -0.00033793       0.00001630       0.00016214
Cu       2.50705360      10.00466400      15.36408228  T      -0.00042746       0.00003515       0.00021577
Cu       5.00634880      10.04191811      15.35784824  T      -0.00034734       0.00003588       0.00030376
Cu       7.50855027      10.02261536      15.34782938  T      -0.00019543       0.00011185       0.00021848
Cu      10.01427113      10.03374371      15.34798200  T      -0.00021660       0.00013039       0.00005947
O        6.12363701       3.44809053      16.62139703  T      -0.00064255       0.00030219      -0.00086801
O        6.12378719       6.56432911      16.62134793  T      -0.00058508      -0.00020221      -0.00090119
O        8.98546543       6.44801252      16.48796641  T      -0.00081812       0.00020447       0.00146374
O        8.98554928       3.56378136      16.48880062  T      -0.00087339      -0.00012793       0.00173356
C       12.14419972       5.01615142      17.28083065  T       0.00571138       0.00011784      -0.00179514
O        7.82872407       5.00765563      19.42290067  T      -0.01607409       0.00009574       0.00240000
O       11.92039060       5.02329081      18.41284325  T       0.00989697       0.00041814       0.00455941
H        8.22672410       5.00760332      20.30133964  T      -0.04878611      -0.00000425       0.01254987
108
Lattice="12.51515363 0.0 0.0 0.0 12.51515363 0.0 0.0 0.0 25.30973" Properties=species:S:1:pos:R:3:move_mask:L:1:forces:R:3 energy=-439.33220149 stress="0.008189984168816554 3.232227915929904e-07 0.0001358343126311084 3.232227915929904e-07 0.007974839817360541 8.367117473794061e-07 0.0001358343126311084 8.367117473794061e-07 0.0019312226004490206" free_energy=-439.33227817 pbc="T T T"
Cu       1.25151999       1.25151999      10.00000011  F      -0.00630185      -0.00754539      -0.07373122
Cu       3.75454997       1.25151999      10.00000011  F       0.01810823      -0.00714932      -0.06492452
Cu       6.25757994       1.25151999      10.00000011  F      -0.01380237       0.00759947      -0.06084440
Cu       8.76061004       1.25151999      10.00000011  F       0.00299829       0.00623157      -0.04830542
Cu      11.26364002       1.25151999      10.00000011  F      -0.00455501       0.01001931      -0.07130150
Cu       1.25151999       3.75454997      10.00000011  F      -0.00405223       0.00852954      -0.06123968
Cu       3.75454997       3.75454997      10.00000011  F       0.00770674      -0.01495553      -0.05664275
Cu       6.25757994       3.75454997      10.00000011  F      -0.01516632      -0.01835663      -0.08028756
Cu       8.76061004       3.75454997      10.00000011  F       0.02712680      -0.01609324      -0.08894714
Cu      11.26364002       3.75454997      10.00000011  F      -0.01406345       0.00039328      -0.05529033
Cu       1.25151999       6.25757994      10.00000011  F      -0.00440598      -0.00704698      -0.06301490
Cu       3.75454997       6.25757994      10.00000011  F       0.00892917       0.01562845      -0.05704861
Cu       6.25757994       6.25757994      10.00000011  F      -0.01513135       0.02028105      -0.08347589
Cu       8.76061004       6.25757994      10.00000011  F       0.02583104       0.01678745      -0.08956164
Cu      11.26364002       6.25757994      10.00000011  F      -0.01365828       0.00108814      -0.05696131
Cu       1.25151999       8.76061004      10.00000011  F      -0.00603827       0.00400697      -0.07257633
Cu       3.75454997       8.76061004      10.00000011  F       0.01734865       0.00470899      -0.06399807
Cu       6.25757994       8.76061004      10.00000011  F      -0.01377134      -0.01176619      -0.05865152
Cu       8.76061004       8.76061004      10.00000011  F       0.00372916      -0.00878445      -0.04746331
Cu      11.26364002       8.76061004      10.00000011  F      -0.00481883      -0.01356793      -0.07008544
Cu       1.25151999      11.26364002      10.00000011  F      -0.00628369       0.00183533      -0.00782452
Cu       3.75454997      11.26364002      10.00000011  F       0.00582188       0.00154449      -0.06952837
Cu       6.25757994      11.26364002      10.00000011  F      -0.00871068       0.00195924      -0.07920735
Cu       8.76061004      11.26364002      10.00000011  F      -0.00900469       0.00161145      -0.07019377
Cu      11.26364002      11.26364002      10.00000011  F       0.01632418       0.00188173      -0.05846802
Cu       0.00000000       0.00000000      11.76991004  F      -0.01878610       0.04668444       0.04471016
Cu       2.50302998       0.00000000      11.76991004  F       0.05148745       0.01682250       0.05244147
Cu       5.00605995       0.00000000      11.76991004  F       0.05011031       0.10623721       0.07047354
Cu       7.50909005       0.00000000      11.76991004  F       0.00425771       0.07738043       0.07026019
Cu      10.01212003       0.00000000      11.76991004  F      -0.05874394       0.07617876       0.07422848
Cu       0.00000000       2.50302998      11.76991004  F      -0.06090198       0.06096183       0.06648803
Cu       2.50302998       2.50302998      11.76991004  F       0.03607199       0.06420170       0.08383045
Cu       5.00605995       2.50302998      11.76991004  F       0.00354136      -0.05294695       0.04537974
Cu       7.50909005       2.50302998      11.76991004  F      -0.03867424      -0.03367549       0.06475781
Cu      10.01212003       2.50302998      11.76991004  F       0.07964326      -0.03347134       0.03106895
Cu       0.00000000       5.00605995      11.76991004  F      -0.08338114       0.00080541       0.06281966
Cu       2.50302998       5.00605995      11.76991004  F       0.06377534       0.00098308       0.08694504
Cu       5.00605995       5.00605995      11.76991004  F      -0.03206578       0.00245440       0.10028179
Cu       7.50909005       5.00605995      11.76991004  F      -0.04613516       0.00231210       0.07674313
Cu      10.01212003       5.00605995      11.76991004  F       0.06874107       0.00024378       0.05433066
Cu       0.00000000       7.50909005      11.76991004  F      -0.06055356      -0.06544926       0.06737631
Cu       2.50302998       7.50909005      11.76991004  F       0.03634427      -0.06689466       0.08307586
Cu       5.00605995       7.50909005      11.76991004  F       0.00535539       0.04909369       0.04705248
Cu       7.50909005       7.50909005      11.76991004  F      -0.03939691       0.02991544       0.06632266
Cu      10.01212003       7.50909005      11.76991004  F       0.08022192       0.03148190       0.03118119
Cu       0.00000000      10.01212003      11.76991004  F      -0.01797409      -0.04466706       0.04241472
Cu       2.50302998      10.01212003      11.76991004  F       0.05257388      -0.01633173       0.05281949
Cu       5.00605995      10.01212003      11.76991004  F       0.05010130      -0.10337106       0.06946237
Cu       7.50909005      10.01212003      11.76991004  F       0.00443445      -0.07396135       0.06845268
Cu      10.01212003      10.01212003      11.76991004  F      -0.05938345      -0.07423963       0.07380034