108
Lattice="12.51515363 0.0 0.0 0.0 12.51515363 0.0 0.0 0.0 25.30973" Properties=species:S:1:pos:R:3:move_mask:L:1:forces:R:3 energy=-444.93372221 stress="0.007948395479420544 -4.5800193965731345e-06 0.000556269576293645 -4.5800193965731345e-06 0.00858946067577021 2.9259701702919768e-05 0.000556269576293645 2.9259701702919768e-05 0.002696612878948833" free_energy=-444.93629625 pbc="T T T"
Cu       1.25151999       1.25151999      10.00000011  F       0.00006926      -0.01491004      -0.07076262
Cu       3.75454997       1.25151999      10.00000011  F       0.00239641       0.00668679      -0.07307701
Cu       6.25757994       1.25151999      10.00000011  F       0.00260351       0.02647869      -0.05733131
Cu       8.76061004       1.25151999      10.00000011  F       0.00310185       0.01380473      -0.06125805
Cu      11.26364002       1.25151999      10.00000011  F      -0.00906985      -0.00648510      -0.07412144
Cu       1.25151999       3.75454997      10.00000011  F       0.00371492       0.01053928      -0.07232635
Cu       3.75454997       3.75454997      10.00000011  F       0.01382963      -0.01318900      -0.05077435
Cu       6.25757994       3.75454997      10.00000011  F      -0.00617518      -0.02539054      -0.07887819
Cu       8.76061004       3.75454997      10.00000011  F       0.00608249      -0.02105649      -0.08253776
Cu      11.26364002       3.75454997      10.00000011  F      -0.01335808       0.00435437      -0.05546783
Cu       1.25151999       6.25757994      10.00000011  F       0.00280900      -0.00898646      -0.07394807
Cu       3.75454997       6.25757994      10.00000011  F       0.01533267       0.01406218      -0.05176281
Cu       6.25757994       6.25757994      10.00000011  F      -0.00606646       0.02763468      -0.08274106
Cu       8.76061004       6.25757994      10.00000011  F       0.00459450       0.02178184      -0.08331194
Cu      11.26364002       6.25757994      10.00000011  F      -0.01263466      -0.00293733      -0.05676086
Cu       1.25151999       8.76061004      10.00000011  F       0.00026496       0.01156195      -0.06990235
Cu       3.75454997       8.76061004      10.00000011  F       0.00181436      -0.00883570      -0.07203147
Cu       6.25757994       8.76061004      10.00000011  F       0.00242341      -0.03070978      -0.05544788
Cu       8.76061004       8.76061004      10.00000011  F       0.00379996      -0.01587260      -0.06067060
Cu      11.26364002       8.76061004      10.00000011  F      -0.00920448       0.00350084      -0.07332758
Cu       1.25151999      11.26364002      10.00000011  F      -0.00226086       0.00178917      -0.01915448
Cu       3.75454997      11.26364002      10.00000011  F      -0.00790126       0.00139818      -0.06796093
Cu       6.25757994      11.26364002      10.00000011  F      -0.00589067       0.00199466      -0.07099359
Cu       8.76061004      11.26364002      10.00000011  F       0.00039435       0.00131451      -0.06883100
Cu      11.26364002      11.26364002      10.00000011  F       0.00949985       0.00168316      -0.06963412
Cu       0.00000000       0.00000000      11.76991004  F      -0.01141261       0.03245498       0.14260101
Cu       2.50302998       0.00000000      11.76991004  F       0.04088550       0.03220349       0.11398006
Cu       5.00605995       0.00000000      11.76991004  F       0.04920783       0.09442017       0.11386589
Cu       7.50909005       0.00000000      11.76991004  F       0.01843784       0.06570962       0.10974703
Cu      10.01212003       0.00000000      11.76991004  F      -0.01231185       0.07467856       0.11327737
Cu       0.00000000       2.50302998      11.76991004  F      -0.05996852       0.03394345       0.12603657
Cu       2.50302998       2.50302998      11.76991004  F       0.07064901       0.02700671       0.11812756
Cu       5.00605995       2.50302998      11.76991004  F       0.00100111      -0.02207566       0.13700851
Cu       7.50909005       2.50302998      11.76991004  F      -0.02689564       0.00185010       0.13845864
Cu      10.01212003       2.50302998      11.76991004  F       0.07432567      -0.07197922       0.05133849
Cu       0.00000000       5.00605995      11.76991004  F      -0.07372041       0.00089795       0.09259803
Cu       2.50302998       5.00605995      11.76991004  F       0.05882492      -0.00142584       0.09094273
Cu       5.00605995       5.00605995      11.76991004  F      -0.01449667       0.00157653       0.24910321
Cu       7.50909005       5.00605995      11.76991004  F      -0.03368653       0.00366342       0.17059804
Cu      10.01212003       5.00605995      11.76991004  F       0.04927270       0.00102083       0.05520117
Cu       0.00000000       7.50909005      11.76991004  F      -0.05603419      -0.03981556       0.12702547
Cu       2.50302998       7.50909005      11.76991004  F       0.07057817      -0.03033285       0.11616365
Cu       5.00605995       7.50909005      11.76991004  F       0.00590474       0.02134126       0.13680088
Cu       7.50909005       7.50909005      11.76991004  F      -0.02436101      -0.00230707       0.13794511
Cu      10.01212003       7.50909005      11.76991004  F       0.08021946       0.07091274       0.04861338
Cu       0.00000000      10.01212003      11.76991004  F      -0.00958920      -0.03213970       0.13879288
Cu       2.50302998      10.01212003      11.76991004  F       0.04196911      -0.03097317       0.11213935
Cu       5.00605995      10.01212003      11.76991004  F       0.04999401      -0.08705651       0.11138312
Cu       7.50909005      10.01212003      11.76991004  F       0.02072449      -0.05558957       0.10601050
Cu      10.01212003      10.01212003      11.76991004  F      -0.00986331      -0.06986398       0.10936097
Cu       1.26936335       1.24326462      13.58667789  T      -0.00102415      -0.01511172       0.00308407
Cu       3.79105730       1.26175301      13.60930681  T      -0.00937555      -0.01009079      -0.02037502
Cu       6.29399178       1.28179640      13.61714878  T       0.00693215      -0.00120120      -0.01014734
Cu       8.77850358       1.27690523      13.61406530  T       0.00406825      -0.00711411      -0.00410009
Cu      11.26861955       1.26401650      13.61377398  T       0.01124483      -0.01121460      -0.01515898
Cu       1.24880571       3.75556357      13.58027149  T      -0.00837470       0.00347046      -0.00963875
Cu       3.76766485       3.76253701      13.61332828  T      -0.02382782       0.00546526      -0.00810126
Cu       6.26191695       3.78225439      13.60522714  T      -0.00880967       0.02088214      -0.02708256
Cu       8.75086587       3.76779813      13.56244231  T      -0.01049243       0.00008753      -0.05014016
Cu      11.22808835       3.75963375      13.60977732  T       0.00470679      -0.00197294      -0.00568432
Cu       1.25049037       6.25465841      13.58042031  T      -0.00943546      -0.00225046      -0.00825778
Cu       3.76921648       6.24889255      13.61110178  T      -0.02552840      -0.00623238      -0.00842483
Cu       6.26441021       6.23280908      13.60462451  T      -0.00866961      -0.02270334      -0.02443036
Cu       8.75340257       6.24582096      13.56202469  T      -0.01240996      -0.00247451      -0.05072543
Cu      11.23016086       6.25267238      13.60945386  T       0.00348638       0.00142747      -0.00728709
Cu       1.27073151       8.76712368      13.58660905  T      -0.00130504       0.01271679       0.00249585
Cu       3.79164163       8.75097951      13.60818509  T      -0.00981389       0.01006173      -0.01713728
Cu       6.29583902       8.73484998      13.61537001  T       0.00512799       0.00181612      -0.00740645
Cu       8.78141448       8.73811080      13.61199521  T       0.00252108       0.00881481      -0.00165616
Cu      11.27079255       8.74767939      13.61374488  T       0.00925315       0.01281109      -0.01394722
Cu       1.24566928      11.26274806      13.61005699  T      -0.01448198       0.00159942      -0.01111283
Cu       3.74000223      11.26396291      13.58156305  T      -0.01302736       0.00165499       0.00127571
Cu       6.25435516      11.26587310      13.57301013  T      -0.00145258       0.00251703      -0.01397320
Cu       8.76443205      11.26501731      13.57935806  T      -0.00687655       0.00084565      -0.00771682
Cu      11.26875722      11.26330849      13.58993247  T       0.02437556       0.00167845       0.00120211
Cu      12.50831059       0.00657021      15.40059334  T       0.00142839       0.01015277      -0.08060828
Cu       2.50400741      12.51358248      15.39681915  T       0.01211709       0.01282050      -0.08147160
Cu       5.00365003      12.48353109      15.37041832  T       0.00654071      -0.00219160      -0.04833524
Cu       7.51008663      12.49404157      15.36415492  T      -0.00410407       0.00375727      -0.05930523
Cu      10.01201415      12.49891322      15.38127240  T      -0.01321837       0.00205329      -0.06016761
Cu       0.07787029       2.50747298      15.37352281  T       0.02119280       0.00420530      -0.04345259
Cu       2.54106753       2.49111229      15.36613211  T       0.02148274       0.01841968      -0.04479944
Cu       5.02204168       2.42352771      15.46065687  T      -0.05427879      -0.05458800      -0.08591226
Cu       7.63027178       2.49674862      15.46135441  T       0.05885071      -0.07609841      -0.11747405
Cu      10.13593482       2.46306972      15.47971560  T       0.04014279      -0.04961969      -0.06998807
Cu      12.43500196       5.00641438      15.35721651  T      -0.02309721       0.00289137      -0.06072294
Cu       2.31921954       5.00314567      15.43216216  T      -0.02915291       0.00312883      -0.04423440
Pd       4.79770154       5.01038957      15.68779347  T      -0.07511155      -0.00231621      -0.04563959
Y        7.49480788       5.01057792      17.26725578  T      -0.12425755       0.00074262       0.09507615
Cu       9.95088400       5.00652414      15.46876965  T       0.08408117       0.00153185      -0.14838345
Cu       0.08308673       7.50494991      15.37411835  T       0.02008890      -0.01221665      -0.04216308
Cu       2.54516424       7.51503638      15.36598810  T       0.02286771      -0.01874790      -0.04499267
Cu       5.02338756       7.59532384      15.45661313  T      -0.05182360       0.05291224      -0.08448789
Cu       7.63938006       7.52439283      15.45755921  T       0.05825689       0.06920855      -0.11172210
Cu      10.14246372       7.54870301      15.48092085  T       0.03772008       0.05163639      -0.06943193
Cu      12.50789171      10.00536823      15.40102715  T       0.00116903      -0.00867662      -0.08106198
Cu       2.50386511      10.00813407      15.39669665  T       0.01303796      -0.01142464      -0.08252869
Cu       5.00344391      10.04880069      15.36943959  T       0.00873042      -0.00069455      -0.04744766
Cu       7.51024933      10.03924600      15.36312127  T      -0.00493825      -0.01104165      -0.05935466
Cu      10.01135372      10.02676150      15.38105220  T      -0.01352357      -0.00275513      -0.06060089
O        6.28051171       3.37829439      16.54384979  T      -0.08611551       0.01519189       0.06630460
O        6.28864556       6.63741673      16.52708639  T      -0.08496609      -0.01540667       0.06773150
O        9.04589698       6.42676079      16.58060027  T       0.03931404       0.11033122       0.10045628
O        9.03737028       3.58769031      16.57580028  T       0.04695811      -0.10499783       0.10576503
C        4.09815389       5.00592854      17.57762596  T       0.45573518       0.02029044       0.29707935
O        5.20916475       5.04308766      18.52877979  T      -0.43077209      -0.03170681      -0.54703355
O        2.97145566       4.97133027      18.02704299  T      -0.03538943       0.01022730       0.16990376
H        4.79096914       5.03756785      19.41089171  T      -0.12560099      -0.01083473       0.31934333
108
Lattice="12.51515363 0.0 0.0 0.0 12.51515363 0.0 0.0 0.0 25.30973" Properties=species:S:1:pos:R:3:move_mask:L:1:forces:R:3 energy=-444.94582987 stress="0.008038872576713112 -3.65611376670514e-06 0.0004848979568882248 -3.65611376670514e-06 0.008653994684479171 2.755745491901763e-05 0.0004848979568882248 2.755745491901763e-05 0.002797644861252491" free_energy=-444.94837668 pbc="T T T"
Cu       1.25151999       1.25151999      10.00000011  F       0.00024076      -0.01497588      -0.07068629
Cu       3.75454997       1.25151999      10.00000011  F       0.00259732       0.00666269      -0.07289407
Cu       6.25757994       1.25151999      10.00000011  F       0.00245694       0.02641546      -0.05699586
Cu       8.76061004       1.25151999      10.00000011  F       0.00256993       0.01386953      -0.06119469
Cu      11.26364002       1.25151999      10.00000011  F      -0.00919435      -0.00657028      -0.07411980
Cu       1.25151999       3.75454997      10.00000011  F       0.00392443       0.01058824      -0.07233818
Cu       3.75454997       3.75454997      10.00000011  F       0.01394705      -0.01305921      -0.05073703
Cu       6.25757994       3.75454997      10.00000011  F      -0.00637137      -0.02537886      -0.07887059
Cu       8.76061004       3.75454997      10.00000011  F       0.00569792      -0.02107432      -0.08255311
Cu      11.26364002       3.75454997      10.00000011  F      -0.01354690       0.00437185      -0.05548609
Cu       1.25151999       6.25757994      10.00000011  F       0.00301473      -0.00907799      -0.07398832
Cu       3.75454997       6.25757994      10.00000011  F       0.01543755       0.01386792      -0.05174688
Cu       6.25757994       6.25757994      10.00000011  F      -0.00626756       0.02755374      -0.08277260
Cu       8.76061004       6.25757994      10.00000011  F       0.00422138       0.02173189      -0.08335355
Cu      11.26364002       6.25757994      10.00000011  F      -0.01281308      -0.00300592      -0.05679402
Cu       1.25151999       8.76061004      10.00000011  F       0.00042982       0.01163275      -0.06984671
Cu       3.75454997       8.76061004      10.00000011  F       0.00200007      -0.00880026      -0.07188701
Cu       6.25757994       8.76061004      10.00000011  F       0.00227406      -0.03062850      -0.05519463
Cu       8.76061004       8.76061004      10.00000011  F       0.00326908      -0.01592824      -0.06065894
Cu      11.26364002       8.76061004      10.00000011  F      -0.00931485       0.00358558      -0.07333572
Cu       1.25151999      11.26364002      10.00000011  F      -0.00227392       0.00180029      -0.01929613
Cu       3.75454997      11.26364002      10.00000011  F      -0.00774716       0.00142282      -0.06760237
Cu       6.25757994      11.26364002      10.00000011  F      -0.00607826       0.00201843      -0.07086453
Cu       8.76061004      11.26364002      10.00000011  F      -0.00001875       0.00134379      -0.06877759
Cu      11.26364002      11.26364002      10.00000011  F       0.00948895       0.00169853      -0.06972276
Cu       0.00000000       0.00000000      11.76991004  F      -0.01125653       0.03229601       0.14154267
Cu       2.50302998       0.00000000      11.76991004  F       0.04100918       0.03198248       0.11341453
Cu       5.00605995       0.00000000      11.76991004  F       0.04918609       0.09431301       0.11351656
Cu       7.50909005       0.00000000      11.76991004  F       0.01804596       0.06575494       0.10916753
Cu      10.01212003       0.00000000      11.76991004  F      -0.01255737       0.07419311       0.11295451
Cu       0.00000000       2.50302998      11.76991004  F      -0.05968803       0.03388789       0.12561837
Cu       2.50302998       2.50302998      11.76991004  F       0.07064422       0.02687765       0.11777045
Cu       5.00605995       2.50302998      11.76991004  F       0.00070827      -0.02213987       0.13677802
Cu       7.50909005       2.50302998      11.76991004  F      -0.02752801       0.00128262       0.13749237
Cu      10.01212003       2.50302998      11.76991004  F       0.07428051      -0.07229772       0.05062646
Cu       0.00000000       5.00605995      11.76991004  F      -0.07366154       0.00089814       0.09180596
Cu       2.50302998       5.00605995      11.76991004  F       0.05868754      -0.00141830       0.08994800
Cu       5.00605995       5.00605995      11.76991004  F      -0.01533170       0.00159159       0.24806838
Cu       7.50909005       5.00605995      11.76991004  F      -0.03457532       0.00364763       0.16852076
Cu      10.01212003       5.00605995      11.76991004  F       0.04957301       0.00098315       0.05384664
Cu       0.00000000       7.50909005      11.76991004  F      -0.05577973      -0.03974730       0.12663607
Cu       2.50302998       7.50909005      11.76991004  F       0.07059822      -0.03019801       0.11582939
Cu       5.00605995       7.50909005      11.76991004  F       0.00559597       0.02140453       0.13669968
Cu       7.50909005       7.50909005      11.76991004  F      -0.02504013      -0.00171771       0.13710666
Cu      10.01212003       7.50909005      11.76991004  F       0.08012630       0.07126133       0.04796859
Cu       0.00000000      10.01212003      11.76991004  F      -0.00943345      -0.03199242       0.13780741
Cu       2.50302998      10.01212003      11.76991004  F       0.04211140      -0.03078668       0.11167343
Cu       5.00605995      10.01212003      11.76991004  F       0.04996151      -0.08696556       0.11114312
Cu       7.50909005      10.01212003      11.76991004  F       0.02028805      -0.05564216       0.10551629
Cu      10.01212003      10.01212003      11.76991004  F      -0.01011661      -0.06937694       0.10909393
Cu       1.26935346       1.24311882      13.58670776  T      -0.00034025      -0.01332334       0.00061951
Cu       3.79096681       1.26165564      13.60911016  T      -0.00873771      -0.00995968      -0.02274181
Cu       6.29405861       1.28178489      13.61705083  T       0.00598444      -0.00091250      -0.01246819
Cu       8.77854288       1.27683665      13.61402581  T       0.00464706      -0.00764051      -0.00835802
Cu      11.26872805       1.26390824      13.61362769  T       0.01086686      -0.01061830      -0.01748251
Cu       1.24872498       3.75559711      13.58017835  T      -0.00770955       0.00279235      -0.01142593
Cu       3.76743495       3.76258970      13.61325007  T      -0.02241485       0.00569800      -0.01005223
Cu       6.26183197       3.78245588      13.60496594  T      -0.00937266       0.01831698      -0.02556829
Cu       8.75076462       3.76779901      13.56195864  T      -0.01030335       0.00002966      -0.04727145
Cu      11.22813365       3.75961473      13.60972240  T       0.00440087      -0.00324259      -0.00881680
Cu       1.25039939       6.25463663      13.58034084  T      -0.00873389      -0.00167525      -0.01026609
Cu       3.76897018       6.24883235      13.61102054  T      -0.02396734      -0.00644663      -0.01031999
Cu       6.26432649       6.23258994      13.60438888  T      -0.00930194      -0.02002643      -0.02312168
Cu       8.75328280       6.24579718      13.56153520  T      -0.01218637      -0.00227071      -0.04785722
Cu      11.23019452       6.25268614      13.60938376  T       0.00312776       0.00279922      -0.01035847
Cu       1.27071887       8.76724633      13.58663309  T      -0.00072357       0.01115651       0.00020183
Cu       3.79154689       8.75107650      13.60801981  T      -0.00917772       0.00994363      -0.01977180
Cu       6.29588845       8.73486750      13.61529864  T       0.00428797       0.00139774      -0.00995440
Cu       8.78143889       8.73819590      13.61197927  T       0.00310321       0.00909168      -0.00611723
Cu      11.27088179       8.74780304      13.61361023  T       0.00908077       0.01205514      -0.01627702
Cu       1.24552949      11.26276346      13.60994993  T      -0.01257407       0.00141051      -0.01287415
Cu       3.73987658      11.26397893      13.58157520  T      -0.01169746       0.00150239      -0.00143126
Cu       6.25434115      11.26589738      13.57287548  T      -0.00221665       0.00231792      -0.01562982
Cu       8.76436572      11.26502545      13.57928365  T      -0.00642354       0.00078278      -0.00983628
Cu      11.26899237      11.26332464      13.58994411  T       0.02143068       0.00160394      -0.00094498
Cu      12.50832436       0.00666820      15.39981557  T       0.00128119       0.00964472      -0.07691432
Cu       2.50412430      12.51370625      15.39603328  T       0.01173283       0.01225586      -0.07831958
Cu       5.00371311      12.48350994      15.36995186  T       0.00648032      -0.00344150      -0.04718120
Cu       7.51004708      12.49407786      15.36358267  T      -0.00468337       0.00157233      -0.05706740
Cu      10.01188662      12.49893299      15.38069204  T      -0.01274112       0.00021625      -0.05817889
Cu       0.07807478       2.50751353      15.37310343  T       0.02118476       0.00397786      -0.04200873
Cu       2.54127478       2.49129001      15.36569982  T       0.01958730       0.01852554      -0.04251740
Cu       5.02151792       2.42300107      15.45982772  T      -0.04518504      -0.04643381      -0.07904721
Cu       7.63083959       2.49601436      15.46022104  T       0.04696890      -0.06038840      -0.10006328
Cu      10.13632204       2.46259101      15.47904034  T       0.03393402      -0.04181154      -0.06168131
Cu      12.43477906       5.00644216      15.35663059  T      -0.02057499       0.00253429      -0.05802148
Cu       2.31893832       5.00317596      15.43173519  T      -0.02793098       0.00292787      -0.03241362
Pd       4.79697679       5.01036717      15.68735308  T      -0.06883330      -0.00189729      -0.03181687
Y        7.49360906       5.01058505      17.26817300  T      -0.07283044       0.00057805       0.05493488
Cu       9.95169524       5.00653891      15.46733813  T       0.06503151       0.00109950      -0.12860475
Cu       0.08328059       7.50483202      15.37371137  T       0.02007788      -0.01146260      -0.04079442
Cu       2.54538488       7.51485541      15.36555404  T       0.02084080      -0.01864854      -0.04287786
Cu       5.02288758       7.59583433      15.45579791  T      -0.04266737       0.04444058      -0.07765038
Cu       7.63994211       7.52506051      15.45648127  T       0.04647785       0.05428248      -0.09502188
Cu      10.14282766       7.54920124      15.48025090  T       0.03180243       0.04381445      -0.06147567
Cu      12.50790298      10.00528450      15.40024508  T       0.00107290      -0.00839635      -0.07753701
Cu       2.50399101      10.00802382      15.39590041  T       0.01265743      -0.01075582      -0.07948486
Cu       5.00352813      10.04879406      15.36898174  T       0.00856170       0.00072198      -0.04638078
Cu       7.51020165      10.03913949      15.36254851  T      -0.00542671      -0.00864144      -0.05720853
Cu      10.01122319      10.02673497      15.38046729  T      -0.01300904      -0.00085369      -0.05853895
O        6.27968083       3.37844094      16.54448962  T      -0.07860079       0.00863648       0.05802464
O        6.28782569       6.63726805      16.52773989  T      -0.07747779      -0.00859352       0.05988041
O        9.04627631       6.42782533      16.58156938  T       0.03355126       0.09974059       0.09203215
O        9.03782345       3.58667720      16.57682077  T       0.04116487      -0.09502767       0.09724370
C        4.10255109       5.00612428      17.58049229  T       0.17084334       0.01045823       0.29448636
O        5.20500847       5.04278179      18.52350170  T      -0.45728487      -0.02904930      -0.20884185
O        2.97111412       4.97142889      18.02868230  T       0.15209399       0.01663122       0.08075685
H        4.78975730       5.03746322      19.41397292  T      -0.02293974      -0.00959476       0.06158524
108
Lattice="12.51515363 0.0 0.0 0.0 12.51515363 0.0 0.0 0.0 25.30973" Properties=species:S:1:pos:R:3:move_mask:L:1:forces:R:3 energy=-444.95377689 stress="0.007992809415484888 -6.246452401110958e-06 0.00045615857859358425 -6.246452401110958e-06 0.008689030010342292 2.6855678357430696e-05 0.00045615857859358425 2.6855678357430696e-05 0.0028103813159823135" free_energy=-444.9563108 pbc="T T T"
Cu       1.25151999       1.25151999      10.00000011  F      -0.00011362      -0.01530066      -0.07067290
Cu       3.75454997       1.25151999      10.00000011  F       0.00223156       0.00632703      -0.07295798
Cu       6.25757994       1.25151999      10.00000011  F       0.00252863       0.02610087      -0.05700840
Cu       8.76061004       1.25151999      10.00000011  F       0.00270807       0.01364566      -0.06126945
Cu      11.26364002       1.25151999      10.00000011  F      -0.00909204      -0.00684553      -0.07410457
Cu       1.25151999       3.75454997      10.00000011  F       0.00364728       0.01034804      -0.07232018
Cu       3.75454997       3.75454997      10.00000011  F       0.01363495      -0.01306975      -0.05090435
Cu       6.25757994       3.75454997      10.00000011  F      -0.00635155      -0.02543510      -0.07909707
Cu       8.76061004       3.75454997      10.00000011  F       0.00590229      -0.02123166      -0.08257752
Cu      11.26364002       3.75454997      10.00000011  F      -0.01362233       0.00414063      -0.05539270
Cu       1.25151999       6.25757994      10.00000011  F       0.00274466      -0.00884291      -0.07396539
Cu       3.75454997       6.25757994      10.00000011  F       0.01513514       0.01389624      -0.05189006
Cu       6.25757994       6.25757994      10.00000011  F      -0.00624847       0.02762763      -0.08296648
Cu       8.76061004       6.25757994      10.00000011  F       0.00441439       0.02190054      -0.08336337
Cu      11.26364002       6.25757994      10.00000011  F      -0.01289165      -0.00277487      -0.05671013
Cu       1.25151999       8.76061004      10.00000011  F       0.00008654       0.01194602      -0.06981042
Cu       3.75454997       8.76061004      10.00000011  F       0.00164380      -0.00848904      -0.07191796
Cu       6.25757994       8.76061004      10.00000011  F       0.00234851      -0.03033973      -0.05514646
Cu       8.76061004       8.76061004      10.00000011  F       0.00338944      -0.01572868      -0.06071498
Cu      11.26364002       8.76061004      10.00000011  F      -0.00921378       0.00384067      -0.07333612
Cu       1.25151999      11.26364002      10.00000011  F      -0.00266627       0.00178442      -0.01924362
Cu       3.75454997      11.26364002      10.00000011  F      -0.00811874       0.00139509      -0.06752991
Cu       6.25757994      11.26364002      10.00000011  F      -0.00602042       0.00199154      -0.07110299
Cu       8.76061004      11.26364002      10.00000011  F       0.00010813       0.00132597      -0.06889705
Cu      11.26364002      11.26364002      10.00000011  F       0.00961430       0.00168574      -0.06950852
Cu       0.00000000       0.00000000      11.76991004  F      -0.01135099       0.03209917       0.14022517
Cu       2.50302998       0.00000000      11.76991004  F       0.04021393       0.03161491       0.11235317
Cu       5.00605995       0.00000000      11.76991004  F       0.04887683       0.09409968       0.11264408
Cu       7.50909005       0.00000000      11.76991004  F       0.01845696       0.06566812       0.10817989
Cu      10.01212003       0.00000000      11.76991004  F      -0.01209808       0.07361661       0.11252878
Cu       0.00000000       2.50302998      11.76991004  F      -0.05972606       0.03341182       0.12496562
Cu       2.50302998       2.50302998      11.76991004  F       0.06973103       0.02647159       0.11716230
Cu       5.00605995       2.50302998      11.76991004  F       0.00024624      -0.02228056       0.13629078
Cu       7.50909005       2.50302998      11.76991004  F      -0.02750299       0.00050761       0.13618018
Cu      10.01212003       2.50302998      11.76991004  F       0.07492387      -0.07295238       0.04966943
Cu       0.00000000       5.00605995      11.76991004  F      -0.07401203       0.00088891       0.09094582
Cu       2.50302998       5.00605995      11.76991004  F       0.05770921      -0.00142628       0.08868121
Cu       5.00605995       5.00605995      11.76991004  F      -0.01640270       0.00159411       0.24651620
Cu       7.50909005       5.00605995      11.76991004  F      -0.03497654       0.00362210       0.16591501
Cu      10.01212003       5.00605995      11.76991004  F       0.05061462       0.00093594       0.05226946
Cu       0.00000000       7.50909005      11.76991004  F      -0.05586438      -0.03926012       0.12600409
Cu       2.50302998       7.50909005      11.76991004  F       0.06970281      -0.02979667       0.11524152
Cu       5.00605995       7.50909005      11.76991004  F       0.00513388       0.02153617       0.13636011
Cu       7.50909005       7.50909005      11.76991004  F      -0.02506603      -0.00091694       0.13594926
Cu      10.01212003       7.50909005      11.76991004  F       0.08070420       0.07195652       0.04710677
Cu       0.00000000      10.01212003      11.76991004  F      -0.00953117      -0.03179159       0.13659300
Cu       2.50302998      10.01212003      11.76991004  F       0.04132593      -0.03042806       0.11072106
Cu       5.00605995      10.01212003      11.76991004  F       0.04964491      -0.08674282       0.11040957
Cu       7.50909005      10.01212003      11.76991004  F       0.02065353      -0.05554989       0.10464203
Cu      10.01212003      10.01212003      11.76991004  F      -0.00966863      -0.06879216       0.10874395