108
Lattice="12.51515363 0.0 0.0 0.0 12.51515363 0.0 0.0 0.0 25.30973" Properties=species:S:1:pos:R:3:move_mask:L:1:forces:R:3 energy=-444.84516238 stress="0.00809716164346617 1.2914993098368897e-06 -7.43381337948431e-05 1.2914993098368897e-06 0.008131422978507115 1.8560250857456526e-06 -7.43381337948431e-05 1.8560250857456526e-06 0.0027991562426873235" free_energy=-444.84874691 pbc="T T T"
Cu       1.25151999       1.25151999      10.00000011  F      -0.00539459      -0.01412862      -0.07619864
Cu       3.75454997       1.25151999      10.00000011  F       0.01692839       0.00261209      -0.07478582
Cu       6.25757994       1.25151999      10.00000011  F      -0.01773785       0.01579732      -0.06045797
Cu       8.76061004       1.25151999      10.00000011  F       0.00940501       0.01952300      -0.05120309
Cu      11.26364002       1.25151999      10.00000011  F      -0.00318595       0.01195160      -0.07427488
Cu       1.25151999       3.75454997      10.00000011  F      -0.00960339       0.01001356      -0.07077363
Cu       3.75454997       3.75454997      10.00000011  F       0.01673811      -0.01271088      -0.05829343
Cu       6.25757994       3.75454997      10.00000011  F      -0.01849945      -0.01567580      -0.07677212
Cu       8.76061004       3.75454997      10.00000011  F       0.01881921      -0.02117429      -0.08476249
Cu      11.26364002       3.75454997      10.00000011  F      -0.00906697      -0.00561592      -0.05005419
Cu       1.25151999       6.25757994      10.00000011  F      -0.00996437      -0.00848256      -0.07241392
Cu       3.75454997       6.25757994      10.00000011  F       0.01800450       0.01348026      -0.05884512
Cu       6.25757994       6.25757994      10.00000011  F      -0.01850901       0.01773415      -0.07983190
Cu       8.76061004       6.25757994      10.00000011  F       0.01753798       0.02197473      -0.08538001
Cu      11.26364002       6.25757994      10.00000011  F      -0.00868576       0.00713628      -0.05172065
Cu       1.25151999       8.76061004      10.00000011  F      -0.00511088       0.01084628      -0.07502692
Cu       3.75454997       8.76061004      10.00000011  F       0.01620036      -0.00489895      -0.07390056
Cu       6.25757994       8.76061004      10.00000011  F      -0.01774493      -0.01977097      -0.05842441
Cu       8.76061004       8.76061004      10.00000011  F       0.01012117      -0.02182670      -0.05027641
Cu      11.26364002       8.76061004      10.00000011  F      -0.00345485      -0.01522453      -0.07305732
Cu       1.25151999      11.26364002      10.00000011  F      -0.00887776       0.00182635      -0.01313327
Cu       3.75454997      11.26364002      10.00000011  F      -0.00460857       0.00159834      -0.07218305
Cu       6.25757994      11.26364002      10.00000011  F      -0.00956515       0.00199307      -0.07476180
Cu       8.76061004      11.26364002      10.00000011  F       0.00016039       0.00162782      -0.06017385
Cu      11.26364002      11.26364002      10.00000011  F       0.02212652       0.00188643      -0.07229912
Cu       0.00000000       0.00000000      11.76991004  F      -0.01011014       0.04448713       0.11074115
Cu       2.50302998       0.00000000      11.76991004  F       0.04250558       0.01218908       0.13663288
Cu       5.00605995       0.00000000      11.76991004  F      -0.00137831       0.07960462       0.10925990
Cu       7.50909005       0.00000000      11.76991004  F      -0.02082664       0.04568881       0.08290244
Cu      10.01212003       0.00000000      11.76991004  F      -0.03341959       0.07873445       0.10648347
Cu       0.00000000       2.50302998      11.76991004  F      -0.05583542       0.02852400       0.10700526
Cu       2.50302998       2.50302998      11.76991004  F       0.05280866       0.03398836       0.12035932
Cu       5.00605995       2.50302998      11.76991004  F      -0.03966653      -0.06179200       0.07168867
Cu       7.50909005       2.50302998      11.76991004  F       0.00647923       0.03399585       0.17682061
Cu      10.01212003       2.50302998      11.76991004  F       0.00909647      -0.01050776       0.13115981
Cu       0.00000000       5.00605995      11.76991004  F      -0.06113913       0.00199238       0.07478044
Cu       2.50302998       5.00605995      11.76991004  F       0.08355190       0.00139759       0.12712187
Cu       5.00605995       5.00605995      11.76991004  F      -0.05982254       0.00189652       0.11930182
Cu       7.50909005       5.00605995      11.76991004  F       0.04101077       0.00212145       0.23175645
Cu      10.01212003       5.00605995      11.76991004  F      -0.01467627       0.00155998       0.22378671
Cu       0.00000000       7.50909005      11.76991004  F      -0.05575063      -0.03182584       0.10865989
Cu       2.50302998       7.50909005      11.76991004  F       0.05238935      -0.03597413       0.12059968
Cu       5.00605995       7.50909005      11.76991004  F      -0.03872642       0.05788407       0.07251344
Cu       7.50909005       7.50909005      11.76991004  F       0.00598185      -0.03784233       0.17796657
Cu      10.01212003       7.50909005      11.76991004  F       0.00974473       0.00822681       0.13211491
Cu       0.00000000      10.01212003      11.76991004  F      -0.01004836      -0.04184873       0.10765240
Cu       2.50302998      10.01212003      11.76991004  F       0.04367525      -0.01078762       0.13569669
Cu       5.00605995      10.01212003      11.76991004  F      -0.00188514      -0.07785396       0.10706795
Cu       7.50909005      10.01212003      11.76991004  F      -0.02013787      -0.04399288       0.08088242
Cu      10.01212003      10.01212003      11.76991004  F      -0.03443860      -0.07757407       0.10587702
Cu       1.25292682       1.24246265      13.58782898  T      -0.00513931      -0.01014590      -0.00535353
Cu       3.76321909       1.26177191      13.61917255  T      -0.00731952      -0.01684095      -0.01260721
Cu       6.24528881       1.26941554      13.61284511  T      -0.00055281      -0.00197260       0.00391269
Cu       8.73579838       1.27395090      13.60509553  T      -0.00546691      -0.00498300       0.00171274
Cu      11.25165588       1.25949715      13.60015001  T       0.01437094      -0.01332018      -0.01550640
Cu       1.24606239       3.75437050      13.58031857  T       0.00326126      -0.00264923      -0.00140668
Cu       3.77565978       3.74472382      13.61047916  T      -0.01610010      -0.00421649      -0.00333143
Cu       6.26528277       3.76480639      13.57270160  T       0.00016211      -0.00912444      -0.06117198
Cu       8.76087349       3.78139798      13.61001169  T       0.00564082      -0.00187800      -0.04213782
Cu      11.24446793       3.77180136      13.61474132  T       0.00962345       0.00333758       0.00202979
Cu       1.24617327       6.25809895      13.58027124  T       0.00251709       0.00352788       0.00016726
Cu       3.77574876       6.26716417      13.61045588  T      -0.01678859       0.00723820      -0.00449844
Cu       6.26530380       6.24712428      13.57271274  T       0.00081924       0.00689321      -0.05942952
Cu       8.76090991       6.23061642      13.61007876  T       0.00591970       0.00014833      -0.04099056
Cu      11.24463601       6.24038487      13.61477118  T       0.00952005      -0.00737538       0.00060284
Cu       1.25304484       8.77009365      13.58775052  T      -0.00496971       0.00682593      -0.00512010
Cu       3.76327954       8.75025150      13.61900322  T      -0.00740833       0.01670947      -0.01203393
Cu       6.24539269       8.74270436      13.61260897  T      -0.00067525       0.00478446       0.00588198
Cu       8.73591614       8.73820942      13.60504921  T      -0.00603141       0.00736146       0.00265428
Cu      11.25178867       8.75276667      13.60010698  T       0.01457503       0.01305623      -0.01488706
Cu       1.25630742      11.26387155      13.61193371  T      -0.00090645       0.00178075      -0.00990091
Cu       3.74856385      11.26360322      13.59220225  T      -0.01445517       0.00104604      -0.00816292
Cu       6.25423139      11.26364715      13.57500504  T      -0.00899287       0.00224711      -0.00346927
Cu       8.76444306      11.26368220      13.57433332  T      -0.00153941       0.00169036      -0.00677728
Cu      11.27964728      11.26371261      13.58077617  T       0.02596730       0.00140042      -0.00527638
Cu       0.00132798       0.00033253      15.40071204  T      -0.00248899       0.01134038      -0.08905502
Cu       2.51480298       0.00625808      15.40404634  T      -0.00964641       0.00843708      -0.08213972
Cu       5.01054651      12.48854016      15.38781699  T       0.02080638       0.00903548      -0.05678285
Cu       7.51028099      12.48937316      15.35925192  T      -0.00145422       0.00376349      -0.05412389
Cu      10.02003724      12.48394622      15.36589977  T      -0.01735757       0.00046016      -0.05449457
Cu       0.00947910       2.48781605      15.36890277  T       0.00439047       0.02112807      -0.05707998
Cu       2.47181756       2.50772378      15.37808388  T      -0.00204056       0.00723603      -0.03804896
Cu       4.93470868       2.42867269      15.52069484  T      -0.04344586      -0.07620269      -0.09524813
Cu       7.41686976       2.47498715      15.44939910  T      -0.04944208      -0.10665074      -0.14172161
Cu      10.05741449       2.42193190      15.41120672  T       0.05980669      -0.05307069      -0.07866052
Cu       0.08475587       5.00634354      15.40227821  T       0.01503904       0.00125693      -0.05480750
Cu       2.48569874       5.00623792      15.36196158  T       0.00292249       0.00140350      -0.05857674
Pd       4.99281504       5.00588449      15.53402598  T      -0.00346741      -0.00224652      -0.08616887
Y        7.56974837       5.00600639      17.27449183  T       0.03264861      -0.00038938       0.08673523
Cu      10.22955392       5.00564520      15.66360471  T       0.01963842       0.00222017      -0.03775075
Cu       0.00987208       7.52516677      15.36873649  T       0.00587562      -0.01812363      -0.05656875
Cu       2.47204283       7.50475643      15.37795151  T      -0.00192861      -0.01321924      -0.03775768
Cu       4.93477476       7.58261583      15.52024509  T      -0.04160616       0.07294787      -0.09371405
Cu       7.41665450       7.53765676      15.44921206  T      -0.05073553       0.10940591      -0.14174524
Cu      10.05771661       7.58994445      15.41102601  T       0.06044396       0.05293914      -0.08080459
Cu       0.00137366      10.01259485      15.40069534  T      -0.00234839      -0.01121815      -0.08921463
Cu       2.51485041      10.00625893      15.40394612  T      -0.00962907      -0.00749728      -0.08201012
Cu       5.01064262      10.03794154      15.38767323  T       0.02123240      -0.01208038      -0.05626407
Cu       7.51031190      10.03826018      15.35918788  T      -0.00213008      -0.00989878      -0.05476011
Cu      10.02006677      10.04313458      15.36586484  T      -0.01729924      -0.00215491      -0.05487362
O        6.07768863       3.45101181      16.69505492  T      -0.06664707       0.01050636       0.13150248
O        6.07757449       6.56068070      16.69490559  T      -0.06541810      -0.00881971       0.13231675
O        8.79741836       6.47724705      16.28960671  T       0.11036948      -0.00663583      -0.03078602
O        8.79800820       3.53425185      16.29129513  T       0.10996013       0.00710398      -0.03106326
C       10.72749622       5.00890527      17.59746601  T       0.59420138       0.00250472       0.39356981
O       12.02035739       5.01461581      18.08308582  T      -0.70270136      -0.00319935      -0.42867008
O        9.79073309       5.00811556      18.42849074  T       0.17390065       0.00131900       0.01952884
H       11.98597677       5.01798727      19.06506386  T      -0.02289448       0.00007396       0.32451086
108
Lattice="12.51515363 0.0 0.0 0.0 12.51515363 0.0 0.0 0.0 25.30973" Properties=species:S:1:pos:R:3:move_mask:L:1:forces:R:3 energy=-444.85772584999995 stress="0.008004798218561048 8.804896923883512e-07 -0.00010073243355617939 8.804896923883512e-07 0.008143575814684613 1.3266202816882347e-06 -0.00010073243355617939 1.3266202816882347e-06 0.002844394313858159" free_energy=-444.86130789 pbc="T T T"
Cu       1.25151999       1.25151999      10.00000011  F      -0.00565973      -0.01392289      -0.07647972
Cu       3.75454997       1.25151999      10.00000011  F       0.01672261       0.00279398      -0.07535724
Cu       6.25757994       1.25151999      10.00000011  F      -0.01766632       0.01583595      -0.06105093
Cu       8.76061004       1.25151999      10.00000011  F       0.00950702       0.01978796      -0.05145279
Cu      11.26364002       1.25151999      10.00000011  F      -0.00300087       0.01189647      -0.07422352
Cu       1.25151999       3.75454997      10.00000011  F      -0.00995173       0.00982770      -0.07113497
Cu       3.75454997       3.75454997      10.00000011  F       0.01656709      -0.01282793      -0.05901814
Cu       6.25757994       3.75454997      10.00000011  F      -0.01834757      -0.01577677      -0.07744897
Cu       8.76061004       3.75454997      10.00000011  F       0.01909479      -0.02114992      -0.08515451
Cu      11.26364002       3.75454997      10.00000011  F      -0.00905262      -0.00563136      -0.05018664
Cu       1.25151999       6.25757994      10.00000011  F      -0.01031578      -0.00832790      -0.07275668
Cu       3.75454997       6.25757994      10.00000011  F       0.01782426       0.01356136      -0.05956019
Cu       6.25757994       6.25757994      10.00000011  F      -0.01835682       0.01779173      -0.08050778
Cu       8.76061004       6.25757994      10.00000011  F       0.01782090       0.02190730      -0.08576884
Cu      11.26364002       6.25757994      10.00000011  F      -0.00866644       0.00711732      -0.05183988
Cu       1.25151999       8.76061004      10.00000011  F      -0.00537388       0.01062296      -0.07526757
Cu       3.75454997       8.76061004      10.00000011  F       0.01598544      -0.00509859      -0.07445070
Cu       6.25757994       8.76061004      10.00000011  F      -0.01767553      -0.01982381      -0.05901049
Cu       8.76061004       8.76061004      10.00000011  F       0.01022470      -0.02210965      -0.05051975
Cu      11.26364002       8.76061004      10.00000011  F      -0.00326326      -0.01519076      -0.07296883
Cu       1.25151999      11.26364002      10.00000011  F      -0.00941742       0.00182142      -0.01291041
Cu       3.75454997      11.26364002      10.00000011  F      -0.00465314       0.00159413      -0.07192223
Cu       6.25757994      11.26364002      10.00000011  F      -0.00951157       0.00199560      -0.07501353
Cu       8.76061004      11.26364002      10.00000011  F       0.00044378       0.00163166      -0.06009894
Cu      11.26364002      11.26364002      10.00000011  F       0.02227540       0.00188533      -0.07249389
Cu       0.00000000       0.00000000      11.76991004  F      -0.01022737       0.04452149       0.10961194
Cu       2.50302998       0.00000000      11.76991004  F       0.04186279       0.01228065       0.13585050
Cu       5.00605995       0.00000000      11.76991004  F      -0.00138490       0.07969621       0.10867844
Cu       7.50909005       0.00000000      11.76991004  F      -0.02069933       0.04562326       0.08248657
Cu      10.01212003       0.00000000      11.76991004  F      -0.03291407       0.07872494       0.10623437
Cu       0.00000000       2.50302998      11.76991004  F      -0.05579621       0.02845421       0.10676214
Cu       2.50302998       2.50302998      11.76991004  F       0.05208655       0.03372662       0.11988593
Cu       5.00605995       2.50302998      11.76991004  F      -0.04034519      -0.06257274       0.07037853
Cu       7.50909005       2.50302998      11.76991004  F       0.00717417       0.03322784       0.17536469
Cu      10.01212003       2.50302998      11.76991004  F       0.00967881      -0.01073550       0.13108842
Cu       0.00000000       5.00605995      11.76991004  F      -0.06140753       0.00196719       0.07515059
Cu       2.50302998       5.00605995      11.76991004  F       0.08277067       0.00139758       0.12671274
Cu       5.00605995       5.00605995      11.76991004  F      -0.06080938       0.00189296       0.11791255
Cu       7.50909005       5.00605995      11.76991004  F       0.04190270       0.00210390       0.22954176
Cu      10.01212003       5.00605995      11.76991004  F      -0.01363831       0.00150702       0.22325105
Cu       0.00000000       7.50909005      11.76991004  F      -0.05572283      -0.03180266       0.10841792
Cu       2.50302998       7.50909005      11.76991004  F       0.05164982      -0.03572409       0.12008803
Cu       5.00605995       7.50909005      11.76991004  F      -0.03934913       0.05866706       0.07125450
Cu       7.50909005       7.50909005      11.76991004  F       0.00665541      -0.03710106       0.17660966
Cu      10.01212003       7.50909005      11.76991004  F       0.01031630       0.00843325       0.13210224
Cu       0.00000000      10.01212003      11.76991004  F      -0.01014775      -0.04189673       0.10658565
Cu       2.50302998      10.01212003      11.76991004  F       0.04301555      -0.01089714       0.13498336
Cu       5.00605995      10.01212003      11.76991004  F      -0.00188639      -0.07793930       0.10654175
Cu       7.50909005      10.01212003      11.76991004  F      -0.02002680      -0.04388790       0.08050061
Cu      10.01212003      10.01212003      11.76991004  F      -0.03392679      -0.07754836       0.10568265
Cu       1.25287714       1.24236478      13.58777735  T      -0.00497360      -0.00876601      -0.00779861
Cu       3.76314838       1.26160946      13.61905106  T      -0.00804514      -0.01624436      -0.01554425
Cu       6.24528356       1.26939651      13.61288283  T      -0.00189675      -0.00341790      -0.00184908
Cu       8.73574556       1.27390272      13.60511198  T      -0.00386830      -0.00503634      -0.00193692
Cu      11.25179455       1.25936862      13.60000043  T       0.01400612      -0.01301553      -0.01836594
Cu       1.24609380       3.75434497      13.58030490  T       0.00262899      -0.00280384      -0.00418833
Cu       3.77550447       3.74468315      13.61044702  T      -0.01505062      -0.00444494      -0.00578948
Cu       6.26528427       3.76471828      13.57211138  T      -0.00041401      -0.00832025      -0.05742728
Cu       8.76092793       3.78137983      13.60960496  T       0.00572459      -0.00220721      -0.03890626
Cu      11.24456079       3.77183352      13.61476106  T       0.00926246       0.00287760      -0.00042483
Cu       1.24619755       6.25813299      13.58027276  T       0.00187753       0.00354770      -0.00280142
Cu       3.77558682       6.26723401      13.61041260  T      -0.01560190       0.00721697      -0.00688154
Cu       6.26531168       6.24719086      13.57213948  T       0.00022345       0.00612981      -0.05571577
Cu       8.76096710       6.23061780      13.60968317  T       0.00599621       0.00058727      -0.03789765
Cu      11.24472787       6.24031366      13.61477701  T       0.00919712      -0.00672415      -0.00176664
Cu       1.25299691       8.77015948      13.58770116  T      -0.00475082       0.00580218      -0.00757088
Cu       3.76320808       8.75041270      13.61888705  T      -0.00821629       0.01616203      -0.01491544
Cu       6.24538618       8.74275054      13.61266592  T      -0.00209865       0.00598676      -0.00013550
Cu       8.73585795       8.73828051      13.60507477  T      -0.00436087       0.00721556      -0.00116928
Cu      11.25192921       8.75289270      13.59996322  T       0.01421592       0.01268726      -0.01781300
Cu       1.25629865      11.26388870      13.61183829  T      -0.00087965       0.00153301      -0.01225331
Cu       3.74842443      11.26361324      13.59212353  T      -0.01351563       0.00093224      -0.00972685
Cu       6.25414466      11.26366893      13.57497163  T      -0.00845268       0.00211717      -0.00598596
Cu       8.76442829      11.26369846      13.57426802  T      -0.00072555       0.00158767      -0.00894769
Cu      11.27989783      11.26372612      13.58072530  T       0.02344426       0.00126730      -0.00720234
Cu       0.00130408       0.00044191      15.39985277  T      -0.00316293       0.01127747      -0.08519890
Cu       2.51470987       0.00633955      15.40325364  T      -0.00922873       0.00808098      -0.07857755
Cu       5.01074738      12.48862739      15.38726903  T       0.01922324       0.00613610      -0.05458471
Cu       7.51026698      12.48940946      15.35872978  T      -0.00088287       0.00081646      -0.05157774
Cu      10.01986978      12.48395060      15.36537384  T      -0.01599693      -0.00092256      -0.05290302
Cu       0.00952153       2.48801993      15.36835203  T       0.00566598       0.02034600      -0.05584892
Cu       2.47179778       2.50779362      15.37771688  T      -0.00424866       0.00711408      -0.03647075
Cu       4.93428955       2.42793743      15.51977584  T      -0.03375505      -0.06258554      -0.08297844
Cu       7.41639269       2.47395815      15.44803187  T      -0.03923450      -0.08562331      -0.12165287
Cu      10.05799157       2.42141978      15.41044768  T       0.05341180      -0.04552721      -0.07227032
Cu       0.08490092       5.00635556      15.40174949  T       0.01285309       0.00123726      -0.05793421
Cu       2.48572702       5.00625143      15.36139641  T       0.00175175       0.00118670      -0.05587212
Pd       4.99278150       5.00586284      15.53319456  T       0.00534660      -0.00192260      -0.07382542
Y        7.57006338       5.00600263      17.27532857  T       0.04297675      -0.00017942       0.08063403
Cu      10.22974340       5.00566660      15.66324050  T       0.02019574       0.00196248      -0.01312155
Cu       0.00992877       7.52499180      15.36819081  T       0.00706526      -0.01759082      -0.05554442
Cu       2.47202431       7.50462890      15.37758730  T      -0.00407934      -0.01274705      -0.03612928
Cu       4.93437340       7.58331968      15.51934102  T      -0.03207393       0.05957525      -0.08171893
Cu       7.41616491       7.53871242      15.44784432  T      -0.04010545       0.08813533      -0.12168754
Cu      10.05829982       7.59045519      15.41024647  T       0.05333095       0.04495887      -0.07361630
Cu       0.00135101      10.01248659      15.39983455  T      -0.00301058      -0.01100906      -0.08574880
Cu       2.51475755      10.00618659      15.40315468  T      -0.00924897      -0.00727721      -0.07857596
Cu       5.01084750      10.03782490      15.38713059  T       0.01959500      -0.00909445      -0.05402609
Cu       7.51029125      10.03816456      15.35865942  T      -0.00145087      -0.00645900      -0.05221916
Cu      10.01989982      10.04311380      15.36533536  T      -0.01593291      -0.00058168      -0.05320181
O        6.07704560       3.45111319      16.69632395  T      -0.06446370       0.00449412       0.11461310
O        6.07694335       6.56059559      16.69618222  T      -0.06311193      -0.00294704       0.11560889
O        8.79848328       6.47718297      16.28930958  T       0.09821147      -0.00255087      -0.03820496
O        8.79906911       3.53432031      16.29099546  T       0.09758539       0.00308992      -0.03834609
C       10.73322941       5.00892942      17.60126322  T       0.25759809       0.00137924       0.18701253
O       12.01357744       5.01458490      18.07894970  T      -0.35983473      -0.00020766       0.00135560
O        9.79241100       5.00812833      18.42867905  T       0.14221984       0.00132194       0.04968380
H       11.98575575       5.01798802      19.06819493  T      -0.01531913      -0.00088670       0.05086276
108
Lattice="12.51515363 0.0 0.0 0.0 12.51515363 0.0 0.0 0.0 25.30973" Properties=species:S:1:pos:R:3:move_mask:L:1:forces:R:3 energy=-444.86379409 stress="0.007949391536895906 7.176674438214346e-07 -0.0001114766797126391 7.176674438214346e-07 0.008168256976228623 1.8989666685317298e-06 -0.0001114766797126391 1.8989666685317298e-06 0.0028417474646001274" free_energy=-444.86739531 pbc="T T T"
Cu       1.25151999       1.25151999      10.00000011  F      -0.00551599      -0.01389521      -0.07660877
Cu       3.75454997       1.25151999      10.00000011  F       0.01689937       0.00281457      -0.07513488
Cu       6.25757994       1.25151999      10.00000011  F      -0.01766510       0.01591889      -0.06070299
Cu       8.76061004       1.25151999      10.00000011  F       0.00951058       0.01989664      -0.05136024
Cu      11.26364002       1.25151999      10.00000011  F      -0.00296532       0.01207827      -0.07431354
Cu       1.25151999       3.75454997      10.00000011  F      -0.00973462       0.00984633      -0.07095782
Cu       3.75454997       3.75454997      10.00000011  F       0.01672986      -0.01274436      -0.05853653
Cu       6.25757994       3.75454997      10.00000011  F      -0.01835323      -0.01565846      -0.07695475
Cu       8.76061004       3.75454997      10.00000011  F       0.01905442      -0.02107691      -0.08518097
Cu      11.26364002       3.75454997      10.00000011  F      -0.00901481      -0.00566006      -0.05026645
Cu       1.25151999       6.25757994      10.00000011  F      -0.01009672      -0.00839359      -0.07260073
Cu       3.75454997       6.25757994      10.00000011  F       0.01799376       0.01343436      -0.05908290
Cu       6.25757994       6.25757994      10.00000011  F      -0.01835930       0.01764023      -0.08000872
Cu       8.76061004       6.25757994      10.00000011  F       0.01777766       0.02179908      -0.08579339
Cu      11.26364002       6.25757994      10.00000011  F      -0.00863679       0.00710567      -0.05192982
Cu       1.25151999       8.76061004      10.00000011  F      -0.00522752       0.01058385      -0.07544059
Cu       3.75454997       8.76061004      10.00000011  F       0.01617135      -0.00512908      -0.07425227
Cu       6.25757994       8.76061004      10.00000011  F      -0.01767896      -0.01992472      -0.05866465
Cu       8.76061004       8.76061004      10.00000011  F       0.01023379      -0.02223578      -0.05043396
Cu      11.26364002       8.76061004      10.00000011  F      -0.00323649      -0.01538686      -0.07308777
Cu       1.25151999      11.26364002      10.00000011  F      -0.00912439       0.00182350      -0.01306586
Cu       3.75454997      11.26364002      10.00000011  F      -0.00457828       0.00159242      -0.07177221
Cu       6.25757994      11.26364002      10.00000011  F      -0.00961802       0.00199077      -0.07466902
Cu       8.76061004      11.26364002      10.00000011  F       0.00040108       0.00162754      -0.05997688
Cu      11.26364002      11.26364002      10.00000011  F       0.02238773       0.00188429      -0.07275071
Cu       0.00000000       0.00000000      11.76991004  F      -0.00983475       0.04457192       0.10801322
Cu       2.50302998       0.00000000      11.76991004  F       0.04203686       0.01217884       0.13448470
Cu       5.00605995       0.00000000      11.76991004  F      -0.00115924       0.07971043       0.10779160
Cu       7.50909005       0.00000000      11.76991004  F      -0.02094415       0.04550278       0.08195535
Cu      10.01212003       0.00000000      11.76991004  F      -0.03314154       0.07872725       0.10582756
Cu       0.00000000       2.50302998      11.76991004  F      -0.05538851       0.02875931       0.10618387
Cu       2.50302998       2.50302998      11.76991004  F       0.05229211       0.03376738       0.11917112
Cu       5.00605995       2.50302998      11.76991004  F      -0.04099163      -0.06315325       0.06899456
Cu       7.50909005       2.50302998      11.76991004  F       0.00733487       0.03239487       0.17364628
Cu      10.01212003       2.50302998      11.76991004  F       0.00992722      -0.01095948       0.13073051
Cu       0.00000000       5.00605995      11.76991004  F      -0.06098812       0.00191041       0.07485684
Cu       2.50302998       5.00605995      11.76991004  F       0.08298363       0.00138135       0.12608800
Cu       5.00605995       5.00605995      11.76991004  F      -0.06204200       0.00189409       0.11610031
Cu       7.50909005       5.00605995      11.76991004  F       0.04222492       0.00211205       0.22671253
Cu      10.01212003       5.00605995      11.76991004  F      -0.01284290       0.00145302       0.22213866
Cu       0.00000000       7.50909005      11.76991004  F      -0.05536517      -0.03216757       0.10785654
Cu       2.50302998       7.50909005      11.76991004  F       0.05184415      -0.03579290       0.11933679
Cu       5.00605995       7.50909005      11.76991004  F      -0.03986576       0.05924088       0.06998318
Cu       7.50909005       7.50909005      11.76991004  F       0.00679601      -0.03629483       0.17508745
Cu      10.01212003       7.50909005      11.76991004  F       0.01051201       0.00862791       0.13186314
Cu       0.00000000      10.01212003      11.76991004  F      -0.00974066      -0.04192533       0.10512955
Cu       2.50302998      10.01212003      11.76991004  F       0.04316764      -0.01076632       0.13371794
Cu       5.00605995      10.01212003      11.76991004  F      -0.00164242      -0.07792046       0.10574341
Cu       7.50909005      10.01212003      11.76991004  F      -0.02028461      -0.04373776       0.08006666
Cu      10.01212003      10.01212003      11.76991004  F      -0.03416055      -0.07752583       0.10536436