108
Lattice="12.51515363 0.0 0.0 0.0 12.51515363 0.0 0.0 0.0 25.30973" Properties=species:S:1:pos:R:3:move_mask:L:1:forces:R:3 energy=-444.96683579 stress="0.008088726343746683 1.3373244698391246e-06 0.0002116912490151348 1.3373244698391246e-06 0.008702378388868325 -2.593646634242536e-06 0.0002116912490151348 -2.593646634242536e-06 0.0028996551564210668" free_energy=-444.96847619 pbc="T T T"
Cu       1.25151999       1.25151999      10.00000011  F      -0.00015602      -0.01668803      -0.07255088
Cu       3.75454997       1.25151999      10.00000011  F       0.00153621       0.00317570      -0.07377829
Cu       6.25757994       1.25151999      10.00000011  F       0.00636855       0.02405771      -0.05514020
Cu       8.76061004       1.25151999      10.00000011  F      -0.00056046       0.01237639      -0.06201979
Cu      11.26364002       1.25151999      10.00000011  F      -0.00800195      -0.01152997      -0.07306616
Cu       1.25151999       3.75454997      10.00000011  F       0.00341476       0.01269722      -0.06737823
Cu       3.75454997       3.75454997      10.00000011  F       0.01281934      -0.00998259      -0.05070725
Cu       6.25757994       3.75454997      10.00000011  F      -0.00274670      -0.02441525      -0.07921941
Cu       8.76061004       3.75454997      10.00000011  F       0.00151057      -0.02216185      -0.08075462
Cu      11.26364002       3.75454997      10.00000011  F      -0.01069977       0.00594795      -0.05544471
Cu       1.25151999       6.25757994      10.00000011  F       0.00284948      -0.01110905      -0.06895302
Cu       3.75454997       6.25757994      10.00000011  F       0.01421207       0.01079822      -0.05102360
Cu       6.25757994       6.25757994      10.00000011  F      -0.00289566       0.02647559      -0.08219365
Cu       8.76061004       6.25757994      10.00000011  F       0.00034062       0.02289349      -0.08135820
Cu      11.26364002       6.25757994      10.00000011  F      -0.01022289      -0.00438602      -0.05700961
Cu       1.25151999       8.76061004      10.00000011  F      -0.00000085       0.01337955      -0.07120849
Cu       3.75454997       8.76061004      10.00000011  F       0.00085331      -0.00555547      -0.07262485
Cu       6.25757994       8.76061004      10.00000011  F       0.00628320      -0.02814047      -0.05309196
Cu       8.76061004       8.76061004      10.00000011  F       0.00018863      -0.01475298      -0.06097828
Cu      11.26364002       8.76061004      10.00000011  F      -0.00818989       0.00812741      -0.07192863
Cu       1.25151999      11.26364002      10.00000011  F      -0.00351938       0.00166281      -0.02106304
Cu       3.75454997      11.26364002      10.00000011  F      -0.00699286       0.00153062      -0.06771967
Cu       6.25757994      11.26364002      10.00000011  F      -0.00614481       0.00200014      -0.07267681
Cu       8.76061004      11.26364002      10.00000011  F      -0.00014613       0.00150519      -0.06966719
Cu      11.26364002      11.26364002      10.00000011  F       0.00909878       0.00178919      -0.06718532
Cu       0.00000000       0.00000000      11.76991004  F      -0.01747941       0.02974487       0.13974578
Cu       2.50302998       0.00000000      11.76991004  F       0.04219737       0.02853434       0.11015654
Cu       5.00605995       0.00000000      11.76991004  F       0.06433873       0.08858439       0.11475869
Cu       7.50909005       0.00000000      11.76991004  F       0.01798752       0.06726505       0.12655729
Cu      10.01212003       0.00000000      11.76991004  F      -0.02570485       0.07876405       0.12437127
Cu       0.00000000       2.50302998      11.76991004  F      -0.06951791       0.03796288       0.12357204
Cu       2.50302998       2.50302998      11.76991004  F       0.05798711       0.02401498       0.11075379
Cu       5.00605995       2.50302998      11.76991004  F      -0.00704485      -0.01924444       0.13914422
Cu       7.50909005       2.50302998      11.76991004  F      -0.03673883      -0.01237582       0.13287833
Cu      10.01212003       2.50302998      11.76991004  F       0.05156703      -0.08380487       0.04969961
Cu       0.00000000       5.00605995      11.76991004  F      -0.09677151       0.00219397       0.07286154
Cu       2.50302998       5.00605995      11.76991004  F       0.04386744       0.00174081       0.08049475
Cu       5.00605995       5.00605995      11.76991004  F      -0.03242849       0.00122265       0.24399980
Cu       7.50909005       5.00605995      11.76991004  F      -0.04816042       0.00093144       0.15942683
Cu      10.01212003       5.00605995      11.76991004  F       0.01493265       0.00096229       0.05206533
Cu       0.00000000       7.50909005      11.76991004  F      -0.06975452      -0.04017947       0.12461004
Cu       2.50302998       7.50909005      11.76991004  F       0.05780516      -0.02684364       0.11144407
Cu       5.00605995       7.50909005      11.76991004  F      -0.00563791       0.01238127       0.14067226
Cu       7.50909005       7.50909005      11.76991004  F      -0.03632741       0.00698759       0.13342199
Cu      10.01212003       7.50909005      11.76991004  F       0.05335721       0.08199455       0.04944195
Cu       0.00000000      10.01212003      11.76991004  F      -0.01754798      -0.02717960       0.13666257
Cu       2.50302998      10.01212003      11.76991004  F       0.04307312      -0.02699476       0.10862149
Cu       5.00605995      10.01212003      11.76991004  F       0.06402783      -0.08854758       0.11195554
Cu       7.50909005      10.01212003      11.76991004  F       0.01916540      -0.06764925       0.12409790
Cu      10.01212003      10.01212003      11.76991004  F      -0.02640848      -0.07828597       0.12358597
Cu       1.26511571       1.24316976      13.58287460  T       0.00044828      -0.01173169       0.00322867
Cu       3.79331240       1.25972380      13.60704058  T      -0.01110396      -0.00777448      -0.01838748
Cu       6.29312035       1.28182694      13.62162329  T       0.00627347      -0.00176974      -0.01440394
Cu       8.77206491       1.27896009      13.62082148  T       0.00270717      -0.00890503      -0.00746745
Cu      11.26235972       1.26272531      13.61426626  T       0.01024610      -0.00969589      -0.01498091
Cu       1.23951358       3.75999006      13.58078604  T       0.00201201       0.00450156      -0.00558576
Cu       3.75327167       3.76057627      13.61029693  T      -0.02550474       0.00511243      -0.00307398
Cu       6.25445341       3.77976150      13.60544455  T      -0.00766851       0.02176141      -0.02976650
Cu       8.73926920       3.76469613      13.56223882  T      -0.00997532       0.00284776      -0.04647067
Cu      11.21552338       3.75711332      13.60520613  T       0.00516848      -0.00270202      -0.00309300
Cu       1.23964436       6.25308588      13.58057167  T       0.00034981      -0.00539137      -0.00435489
Cu       3.75348618       6.25034856      13.61088108  T      -0.02491532      -0.00594568      -0.00370414
Cu       6.25523310       6.23023896      13.60511552  T      -0.00789938      -0.02256054      -0.02866292
Cu       8.73999734       6.24716721      13.56205279  T      -0.00799778      -0.00491029      -0.04643544
Cu      11.21585666       6.25532284      13.60524207  T       0.00457021       0.00184711      -0.00371929
Cu       1.26503999       8.76996587      13.58277488  T       0.00032023       0.00760002       0.00307083
Cu       3.79328750       8.75179412      13.60632204  T      -0.01153162       0.00751776      -0.01626189
Cu       6.29365037       8.72860917      13.62140689  T       0.00573615       0.00571719      -0.01483389
Cu       8.77264837       8.73281864      13.62088247  T       0.00259510       0.01376225      -0.00745674
Cu      11.26251103       8.74939221      13.61454466  T       0.00975619       0.01010731      -0.01312458
Cu       1.24678401      11.26414450      13.60799299  T      -0.01356286       0.00124225      -0.00994676
Cu       3.74368757      11.26337057      13.57993588  T      -0.01413408       0.00187992       0.00152146
Cu       6.25728709      11.26281602      13.57480839  T      -0.00265065       0.00257612      -0.01366105
Cu       8.76576191      11.26341575      13.58142789  T      -0.00598866       0.00186712      -0.00663089
Cu      11.26950900      11.26357995      13.59045967  T       0.02401413       0.00141718      -0.00022707
Cu      12.51140484       0.00701524      15.39976419  T       0.00234726       0.01025719      -0.08097203
Cu       2.50721266      12.51283557      15.39407355  T       0.01046505       0.01325124      -0.08080993
Cu       5.00554683      12.47897845      15.37149449  T       0.00574488       0.00318502      -0.04968399
Cu       7.51126856      12.49295463      15.36807211  T      -0.00163993       0.00333256      -0.05859022
Cu      10.01428077      12.49918905      15.38342727  T      -0.01437221       0.00301559      -0.06137960
Cu       0.06533311       2.50852025      15.36672031  T       0.02040386       0.00521402      -0.04102385
Cu       2.53069572       2.47887398      15.35248106  T       0.01948249       0.01318127      -0.04801655
Cu       5.01508751       2.41852528      15.46842164  T      -0.05443174      -0.05227663      -0.08759176
Cu       7.60482847       2.50593787      15.47558126  T       0.05566064      -0.08871972      -0.12597981
Cu      10.11913398       2.46755027      15.48038125  T       0.04376953      -0.04883817      -0.07520139
Cu      12.39200051       5.00644229      15.35084605  T      -0.01177703       0.00138260      -0.06023741
Cu       2.26685138       5.00695641      15.45449699  T      -0.01211506       0.00135093       0.01516473
Pd       4.78504622       5.00316582      15.65644206  T      -0.02832327       0.00436690      -0.05678425
Y        7.47247009       5.00538313      17.27227191  T      -0.09392074       0.00075163       0.06937803
Cu       9.91867638       5.00579826      15.46304105  T       0.10112010       0.00192957      -0.15156208
Cu       0.06608714       7.50430013      15.36693443  T       0.01912849      -0.01328025      -0.04174308
Cu       2.53100597       7.53536474      15.35198828  T       0.01850732      -0.00863876      -0.04944854
Cu       5.01529701       7.58887403      15.46591244  T      -0.05341631       0.05237279      -0.08419679
Cu       7.60648473       7.50518783      15.47500268  T       0.05499454       0.08715514      -0.12490090
Cu      10.12005584       7.54379219      15.48145565  T       0.04290206       0.05024338      -0.07620163
Cu      12.51119296      10.00588861      15.39993073  T       0.00236856      -0.00935460      -0.08164927
Cu       2.50691693      10.01630609      15.39394624  T       0.01144263      -0.01431287      -0.08239759
Cu       5.00528138      10.04411401      15.37107359  T       0.00767126      -0.00395493      -0.04913619
Cu       7.51106807      10.03339066      15.36805439  T      -0.00153060      -0.00966074      -0.05945663
Cu      10.01403622      10.02747800      15.38375680  T      -0.01514760      -0.00529547      -0.06199284
O        6.24519657       3.37494834      16.59048347  T      -0.10377525       0.04264437       0.10348463
O        6.24700952       6.63421611      16.58665107  T      -0.10257205      -0.03859952       0.10132420
O        9.01128106       6.42164072      16.57945374  T       0.05542298       0.10867461       0.10852774
O        9.00973181       3.58927673      16.57800780  T       0.05638691      -0.10463680       0.10839213
C        3.87063740       5.01178651      17.44365979  T       0.39462671       0.00310636       0.49043493
O        4.78568737       5.01940060      18.51904465  T      -0.34188349      -0.00905644      -0.72326160
O        2.66419011       5.01292889      17.70144572  T       0.06657431       0.00200604       0.11178550
H        4.23823813       5.02870900      19.33009267  T      -0.12536086      -0.00104217       0.30189663
108
Lattice="12.51515363 0.0 0.0 0.0 12.51515363 0.0 0.0 0.0 25.30973" Properties=species:S:1:pos:R:3:move_mask:L:1:forces:R:3 energy=-444.97828662 stress="0.00807327691721115 3.2950799128275485e-07 0.0001265509977912168 3.2950799128275485e-07 0.00868418242993251 -2.7445288758516382e-06 0.0001265509977912168 -2.7445288758516382e-06 0.002881404141133252" free_energy=-444.97991173 pbc="T T T"
Cu       1.25151999       1.25151999      10.00000011  F      -0.00050580      -0.01736726      -0.07267067
Cu       3.75454997       1.25151999      10.00000011  F       0.00127675       0.00273614      -0.07396061
Cu       6.25757994       1.25151999      10.00000011  F       0.00638251       0.02370433      -0.05512112
Cu       8.76061004       1.25151999      10.00000011  F      -0.00047017       0.01211566      -0.06188165
Cu      11.26364002       1.25151999      10.00000011  F      -0.00797718      -0.01212524      -0.07294712
Cu       1.25151999       3.75454997      10.00000011  F       0.00315003       0.01241407      -0.06774959
Cu       3.75454997       3.75454997      10.00000011  F       0.01267982      -0.01006981      -0.05105418
Cu       6.25757994       3.75454997      10.00000011  F      -0.00273143      -0.02449413      -0.07937075
Cu       8.76061004       3.75454997      10.00000011  F       0.00155454      -0.02234951      -0.08075045
Cu      11.26364002       3.75454997      10.00000011  F      -0.01084173       0.00563812      -0.05547102
Cu       1.25151999       6.25757994      10.00000011  F       0.00258458      -0.01077811      -0.06937500
Cu       3.75454997       6.25757994      10.00000011  F       0.01406206       0.01091573      -0.05141516
Cu       6.25757994       6.25757994      10.00000011  F      -0.00288561       0.02656626      -0.08239972
Cu       8.76061004       6.25757994      10.00000011  F       0.00039096       0.02309707      -0.08141351
Cu      11.26364002       6.25757994      10.00000011  F      -0.01035627      -0.00404266      -0.05709304
Cu       1.25151999       8.76061004      10.00000011  F      -0.00034329       0.01409017      -0.07139370
Cu       3.75454997       8.76061004      10.00000011  F       0.00057723      -0.00507971      -0.07288496
Cu       6.25757994       8.76061004      10.00000011  F       0.00628712      -0.02775192      -0.05316669
Cu       8.76061004       8.76061004      10.00000011  F       0.00029339      -0.01445394      -0.06093441
Cu      11.26364002       8.76061004      10.00000011  F      -0.00814918       0.00875520      -0.07189061
Cu       1.25151999      11.26364002      10.00000011  F      -0.00409937       0.00165732      -0.02200089
Cu       3.75454997      11.26364002      10.00000011  F      -0.00752047       0.00155842      -0.06782537
Cu       6.25757994      11.26364002      10.00000011  F      -0.00618554       0.00204498      -0.07287686
Cu       8.76061004      11.26364002      10.00000011  F       0.00018275       0.00154654      -0.06959131
Cu      11.26364002      11.26364002      10.00000011  F       0.00945815       0.00179962      -0.06782307
Cu       0.00000000       0.00000000      11.76991004  F      -0.01763951       0.02951014       0.13811476
Cu       2.50302998       0.00000000      11.76991004  F       0.04160839       0.02816746       0.10897029
Cu       5.00605995       0.00000000      11.76991004  F       0.06414865       0.08838468       0.11399637
Cu       7.50909005       0.00000000      11.76991004  F       0.01826288       0.06717252       0.12554193
Cu      10.01212003       0.00000000      11.76991004  F      -0.02549949       0.07823656       0.12355998
Cu       0.00000000       2.50302998      11.76991004  F      -0.06963575       0.03745808       0.12298537
Cu       2.50302998       2.50302998      11.76991004  F       0.05745095       0.02350875       0.11011947
Cu       5.00605995       2.50302998      11.76991004  F      -0.00733498      -0.01951307       0.13866891
Cu       7.50909005       2.50302998      11.76991004  F      -0.03673664      -0.01297442       0.13178148
Cu      10.01212003       2.50302998      11.76991004  F       0.05181396      -0.08440197       0.04895322
Cu       0.00000000       5.00605995      11.76991004  F      -0.09716170       0.00217752       0.07241471
Cu       2.50302998       5.00605995      11.76991004  F       0.04331764       0.00174008       0.07952498
Cu       5.00605995       5.00605995      11.76991004  F      -0.03321748       0.00118777       0.24275111
Cu       7.50909005       5.00605995      11.76991004  F      -0.04832582       0.00090482       0.15730896
Cu      10.01212003       5.00605995      11.76991004  F       0.01544532       0.00090534       0.05096607
Cu       0.00000000       7.50909005      11.76991004  F      -0.06988503      -0.03964759       0.12401197
Cu       2.50302998       7.50909005      11.76991004  F       0.05727135      -0.02633936       0.11081229
Cu       5.00605995       7.50909005      11.76991004  F      -0.00594307       0.01269573       0.14022325
Cu       7.50909005       7.50909005      11.76991004  F      -0.03632194       0.00760098       0.13238838
Cu      10.01212003       7.50909005      11.76991004  F       0.05361507       0.08265047       0.04869812
Cu       0.00000000      10.01212003      11.76991004  F      -0.01769663      -0.02689064       0.13511845
Cu       2.50302998      10.01212003      11.76991004  F       0.04248590      -0.02656417       0.10752250
Cu       5.00605995      10.01212003      11.76991004  F       0.06380184      -0.08821937       0.11125735
Cu       7.50909005      10.01212003      11.76991004  F       0.01942771      -0.06736729       0.12307027
Cu      10.01212003      10.01212003      11.76991004  F      -0.02618087      -0.07762728       0.12279370
Cu       1.26511996       1.24305650      13.58290573  T       0.00023542      -0.01029370       0.00024832
Cu       3.79320527       1.25964884      13.60686316  T      -0.01046370      -0.00780201      -0.02105766
Cu       6.29318093       1.28180979      13.62148408  T       0.00565647      -0.00145551      -0.01628799
Cu       8.77209107       1.27887424      13.62074960  T       0.00377026      -0.00912465      -0.01139805
Cu      11.26245859       1.26263170      13.61412174  T       0.00987345      -0.00918619      -0.01761277
Cu       1.23953298       3.76003348      13.58073213  T       0.00193453       0.00434087      -0.00659470
Cu       3.75302562       3.76062570      13.61026732  T      -0.02383033       0.00574405      -0.00435222
Cu       6.25437932       3.77997150      13.60515728  T      -0.00791091       0.01911353      -0.02757382
Cu       8.73917296       3.76472366      13.56179033  T      -0.00931310       0.00239404      -0.04340162
Cu      11.21557319       3.75708729      13.60517627  T       0.00490472      -0.00394350      -0.00628671
Cu       1.23964774       6.25303381      13.58052965  T       0.00044818      -0.00528851      -0.00559243
Cu       3.75324589       6.25029124      13.61084539  T      -0.02339112      -0.00649592      -0.00503025
Cu       6.25515688       6.23002133      13.60483889  T      -0.00812438      -0.01977961      -0.02657327
Cu       8.73992012       6.24711978      13.56160455  T      -0.00753507      -0.00431091      -0.04343745
Cu      11.21590072       6.25534073      13.60520638  T       0.00432238       0.00311545      -0.00699607
Cu       1.26504312       8.77003921      13.58280449  T       0.00000251       0.00658687       0.00005499
Cu       3.79317624       8.75186671      13.60616512  T      -0.01078199       0.00770126      -0.01916166
Cu       6.29370569       8.72866436      13.62126364  T       0.00507022       0.00518843      -0.01679883
Cu       8.77267353       8.73295143      13.62081059  T       0.00363481       0.01362632      -0.01152129
Cu      11.26260514       8.74948970      13.61441786  T       0.00951422       0.00958808      -0.01591449
Cu       1.24665310      11.26415639      13.60789706  T      -0.01228075       0.00106975      -0.01258054
Cu       3.74355115      11.26338871      13.57995056  T      -0.01298657       0.00179330      -0.00145983
Cu       6.25726143      11.26284080      13.57467652  T      -0.00292242       0.00255526      -0.01519825
Cu       8.76570421      11.26343377      13.58136386  T      -0.00510254       0.00189803      -0.00904909
Cu      11.26974066      11.26359371      13.59045765  T       0.02101291       0.00137336      -0.00289854
Cu      12.51142749       0.00711424      15.39898288  T       0.00180912       0.00986371      -0.07722841
Cu       2.50731366      12.51296335      15.39329376  T       0.00990097       0.01258342      -0.07723482
Cu       5.00560227      12.47900912      15.37101512  T       0.00587244       0.00184849      -0.04795588
Cu       7.51125279      12.49298679      15.36750694  T      -0.00214246       0.00135395      -0.05629881
Cu      10.01414210      12.49921821      15.38283502  T      -0.01362682       0.00128024      -0.05930074
Cu       0.06552997       2.50857056      15.36632447  T       0.02020636       0.00508750      -0.03944641
Cu       2.53088370       2.47900113      15.35201764  T       0.01719047       0.01389913      -0.04491061
Cu       5.01456237       2.41802092      15.46757655  T      -0.04406143      -0.04271566      -0.07914953
Cu       7.60536550       2.50508196      15.47436563  T       0.04387758      -0.07144538      -0.10597159
Cu      10.11955624       2.46707907      15.47965562  T       0.03686075      -0.04046150      -0.06621666
Cu      12.39188688       5.00645555      15.35026494  T      -0.00872093       0.00112342      -0.05706658
Cu       2.26673449       5.00696943      15.45464328  T      -0.00844119       0.00139479       0.03063943
Pd       4.78477289       5.00320787      15.65589436  T      -0.02993736       0.00350300      -0.03726587
Y        7.47156386       5.00539039      17.27294136  T      -0.05129173      -0.00021945       0.04234031
Cu       9.91965206       5.00581678      15.46157890  T       0.08189003       0.00232905      -0.13076587
Cu       0.06627174       7.50417210      15.36653176  T       0.01900305      -0.01269156      -0.04008935
Cu       2.53118457       7.53528139      15.35151119  T       0.01626738      -0.00981884      -0.04634113
Cu       5.01478164       7.58937939      15.46509999  T      -0.04330329       0.04336521      -0.07607994
Cu       7.60701537       7.50602872      15.47379768  T       0.04375753       0.07056281      -0.10557602
Cu      10.12046972       7.54427691      15.48072040  T       0.03598318       0.04163007      -0.06723061
Cu      12.51121586      10.00579825      15.39914309  T       0.00191022      -0.00902310      -0.07791234
Cu       2.50702732      10.01616805      15.39315101  T       0.01083954      -0.01336403      -0.07879259
Cu       5.00535535      10.04407584      15.37059928  T       0.00771968      -0.00239206      -0.04751340
Cu       7.51105330      10.03329742      15.36748062  T      -0.00196987      -0.00723283      -0.05696880
Cu      10.01389004      10.02742693      15.38315873  T      -0.01439654      -0.00335617      -0.05994090
O        6.24419524       3.37535971      16.59148194  T      -0.09707387       0.03242669       0.09240361
O        6.24601982       6.63384366      16.58762853  T      -0.09574600      -0.02886456       0.09079712
O        9.01181583       6.42268924      16.58050081  T       0.05251529       0.10022004       0.09689572
O        9.01027585       3.58826713      16.57905360  T       0.05329422      -0.09671399       0.09648559
C        3.87444502       5.01181642      17.44839170  T       0.16776757       0.00151908       0.28782786
O        4.78238875       5.01931325      18.51206625  T      -0.35405166      -0.00509692      -0.27152896
O        2.66483239       5.01294829      17.70252416  T       0.13581417       0.00203999       0.08782417
H        4.23702854       5.02869886      19.33300557  T       0.03266182      -0.00392572       0.04955386
108
Lattice="12.51515363 0.0 0.0 0.0 12.51515363 0.0 0.0 0.0 25.30973" Properties=species:S:1:pos:R:3:move_mask:L:1:forces:R:3 energy=-444.986141 stress="0.007990465042242115 8.475969392949466e-09 6.611243019331418e-05 8.475969392949466e-09 0.008674910761748648 -1.9122922905154904e-06 6.611243019331418e-05 -1.9122922905154904e-06 0.0028110447197457946" free_energy=-444.98774172 pbc="T T T"
Cu       1.25151999       1.25151999      10.00000011  F      -0.00032810      -0.01715617      -0.07275696
Cu       3.75454997       1.25151999      10.00000011  F       0.00157108       0.00283508      -0.07395278
Cu       6.25757994       1.25151999      10.00000011  F       0.00639834       0.02367226      -0.05519710
Cu       8.76061004       1.25151999      10.00000011  F      -0.00097579       0.01225411      -0.06238787
Cu      11.26364002       1.25151999      10.00000011  F      -0.00811336      -0.01192947      -0.07343315
Cu       1.25151999       3.75454997      10.00000011  F       0.00335249       0.01260025      -0.06769785
Cu       3.75454997       3.75454997      10.00000011  F       0.01283375      -0.00977243      -0.05101120
Cu       6.25757994       3.75454997      10.00000011  F      -0.00284817      -0.02438081      -0.07962349
Cu       8.76061004       3.75454997      10.00000011  F       0.00128558      -0.02225926      -0.08112374
Cu      11.26364002       3.75454997      10.00000011  F      -0.01104166       0.00583008      -0.05562768
Cu       1.25151999       6.25757994      10.00000011  F       0.00278428      -0.01102011      -0.06926744
Cu       3.75454997       6.25757994      10.00000011  F       0.01422514       0.01059075      -0.05130572
Cu       6.25757994       6.25757994      10.00000011  F      -0.00299203       0.02644954      -0.08253723
Cu       8.76061004       6.25757994      10.00000011  F       0.00010404       0.02300744      -0.08167093
Cu      11.26364002       6.25757994      10.00000011  F      -0.01055661      -0.00427293      -0.05717067
Cu       1.25151999       8.76061004      10.00000011  F      -0.00016835       0.01389226      -0.07139841
Cu       3.75454997       8.76061004      10.00000011  F       0.00090495      -0.00516745      -0.07276604
Cu       6.25757994       8.76061004      10.00000011  F       0.00632384      -0.02771488      -0.05309170
Cu       8.76061004       8.76061004      10.00000011  F      -0.00023444      -0.01458966      -0.06129259
Cu      11.26364002       8.76061004      10.00000011  F      -0.00831300       0.00857348      -0.07226554
Cu       1.25151999      11.26364002      10.00000011  F      -0.00400457       0.00168688      -0.02218881
Cu       3.75454997      11.26364002      10.00000011  F      -0.00712157       0.00155356      -0.06763467
Cu       6.25757994      11.26364002      10.00000011  F      -0.00617959       0.00202674      -0.07318626
Cu       8.76061004      11.26364002      10.00000011  F      -0.00041991       0.00152576      -0.07010959
Cu      11.26364002      11.26364002      10.00000011  F       0.00926817       0.00180184      -0.06813667
Cu       0.00000000       0.00000000      11.76991004  F      -0.01733325       0.02963907       0.13683347
Cu       2.50302998       0.00000000      11.76991004  F       0.04170673       0.02803511       0.10794767
Cu       5.00605995       0.00000000      11.76991004  F       0.06403398       0.08829583       0.11311820
Cu       7.50909005       0.00000000      11.76991004  F       0.01794845       0.06711578       0.12435186
Cu      10.01212003       0.00000000      11.76991004  F      -0.02561965       0.07773997       0.12314194
Cu       0.00000000       2.50302998      11.76991004  F      -0.06906987       0.03788849       0.12255601
Cu       2.50302998       2.50302998      11.76991004  F       0.05722494       0.02375426       0.10939898
Cu       5.00605995       2.50302998      11.76991004  F      -0.00792117      -0.01930587       0.13793128
Cu       7.50909005       2.50302998      11.76991004  F      -0.03727819      -0.01349537       0.12993217
Cu      10.01212003       2.50302998      11.76991004  F       0.05211471      -0.08449959       0.04786336
Cu       0.00000000       5.00605995      11.76991004  F      -0.09699022       0.00217272       0.07167578
Cu       2.50302998       5.00605995      11.76991004  F       0.04301814       0.00175824       0.07814764
Cu       5.00605995       5.00605995      11.76991004  F      -0.03469704       0.00122140       0.24068322
Cu       7.50909005       5.00605995      11.76991004  F      -0.04919328       0.00098328       0.15396914
Cu      10.01212003       5.00605995      11.76991004  F       0.01649293       0.00090217       0.04910824
Cu       0.00000000       7.50909005      11.76991004  F      -0.06938839      -0.04007458       0.12359253
Cu       2.50302998       7.50909005      11.76991004  F       0.05706689      -0.02662401       0.11013231
Cu       5.00605995       7.50909005      11.76991004  F      -0.00649033       0.01253334       0.13962246
Cu       7.50909005       7.50909005      11.76991004  F      -0.03682902       0.00813193       0.13077077
Cu      10.01212003       7.50909005      11.76991004  F       0.05387027       0.08281088       0.04773801
Cu       0.00000000      10.01212003      11.76991004  F      -0.01740810      -0.02707118       0.13395861
Cu       2.50302998      10.01212003      11.76991004  F       0.04257311      -0.02647035       0.10663706
Cu       5.00605995      10.01212003      11.76991004  F       0.06364934      -0.08813896       0.11049208
Cu       7.50909005      10.01212003      11.76991004  F       0.01911655      -0.06729478       0.12195135
Cu      10.01212003      10.01212003      11.76991004  F      -0.02625633      -0.07713372       0.12242599