108
Lattice="12.51515363 0.0 0.0 0.0 12.51515363 0.0 0.0 0.0 25.30973" Properties=species:S:1:pos:R:3:move_mask:L:1:forces:R:3 energy=-444.81445715999996 stress="0.007834147525965448 -5.277597919122002e-05 -5.042505236386483e-05 -5.277597919122002e-05 0.007381941108399427 -8.524728686391778e-05 -5.042505236386483e-05 -8.524728686391778e-05 0.0018805421455317245" free_energy=-444.8175975 pbc="T T T"
Cu       1.25151999       1.25151999      10.00000011  F       0.00218444      -0.02111851      -0.08286933
Cu       3.75454997       1.25151999      10.00000011  F       0.01573542      -0.00065799      -0.07398965
Cu       6.25757994       1.25151999      10.00000011  F      -0.01612424       0.01056934      -0.04925944
Cu       8.76061004       1.25151999      10.00000011  F       0.01260703       0.00398308      -0.04504402
Cu      11.26364002       1.25151999      10.00000011  F      -0.01408444      -0.00186778      -0.07138020
Cu       1.25151999       3.75454997      10.00000011  F       0.00351202       0.00315037      -0.06465925
Cu       3.75454997       3.75454997      10.00000011  F       0.01529119      -0.01190960      -0.05763135
Cu       6.25757994       3.75454997      10.00000011  F      -0.01933770      -0.01634861      -0.08759891
Cu       8.76061004       3.75454997      10.00000011  F       0.02068564      -0.01447018      -0.09245089
Cu      11.26364002       3.75454997      10.00000011  F      -0.01749341       0.00063682      -0.05497506
Cu       1.25151999       6.25757994      10.00000011  F      -0.00242120       0.00006397      -0.07880296
Cu       3.75454997       6.25757994      10.00000011  F       0.01687743       0.02083582      -0.06431972
Cu       6.25757994       6.25757994      10.00000011  F      -0.01860117       0.01952274      -0.08095162
Cu       8.76061004       6.25757994      10.00000011  F       0.01686079       0.02039443      -0.07807414
Cu      11.26364002       6.25757994      10.00000011  F      -0.01068948       0.00813571      -0.06593359
Cu       1.25151999       8.76061004      10.00000011  F      -0.00301828       0.00612288      -0.07256679
Cu       3.75454997       8.76061004      10.00000011  F       0.00583240      -0.02118894      -0.07339789
Cu       6.25757994       8.76061004      10.00000011  F      -0.00890034      -0.02407118      -0.06095147
Cu       8.76061004       8.76061004      10.00000011  F       0.01017393      -0.01557710      -0.05445685
Cu      11.26364002       8.76061004      10.00000011  F      -0.00565259      -0.01783811      -0.07722457
Cu       1.25151999      11.26364002      10.00000011  F      -0.00500770       0.00942333      -0.01369095
Cu       3.75454997      11.26364002      10.00000011  F      -0.00480092       0.01148140      -0.07239053
Cu       6.25757994      11.26364002      10.00000011  F       0.00263252       0.01626048      -0.07552466
Cu       8.76061004      11.26364002      10.00000011  F      -0.00478158       0.00685400      -0.07399737
Cu      11.26364002      11.26364002      10.00000011  F       0.01003617       0.00807925      -0.07070507
Cu       0.00000000       0.00000000      11.76991004  F      -0.02034529       0.02631762       0.04559903
Cu       2.50302998       0.00000000      11.76991004  F       0.04419794       0.00627236       0.03519806
Cu       5.00605995       0.00000000      11.76991004  F       0.06598748       0.05526339       0.06198344
Cu       7.50909005       0.00000000      11.76991004  F       0.00449925       0.03565210       0.05349282
Cu      10.01212003       0.00000000      11.76991004  F      -0.05536062       0.05044997       0.08247289
Cu       0.00000000       2.50302998      11.76991004  F      -0.09683656       0.02000955       0.03090292
Cu       2.50302998       2.50302998      11.76991004  F       0.07318401       0.01938785       0.01647166
Cu       5.00605995       2.50302998      11.76991004  F       0.00950980      -0.04175810       0.07077430
Cu       7.50909005       2.50302998      11.76991004  F       0.00311914       0.00965071       0.24187021
Cu      10.01212003       2.50302998      11.76991004  F      -0.04676848       0.00363719       0.13310141
Cu       0.00000000       5.00605995      11.76991004  F      -0.07752346       0.04312905       0.00882579
Cu       2.50302998       5.00605995      11.76991004  F       0.05235700       0.02452413       0.01257794
Cu       5.00605995       5.00605995      11.76991004  F      -0.00415514      -0.00947759       0.10339599
Cu       7.50909005       5.00605995      11.76991004  F      -0.03253951      -0.10125320       0.17617714
Cu      10.01212003       5.00605995      11.76991004  F      -0.04152963      -0.04537501       0.10452610
Cu       0.00000000       7.50909005      11.76991004  F      -0.04972067       0.01834433       0.05230571
Cu       2.50302998       7.50909005      11.76991004  F       0.05804897       0.05328876       0.01424292
Cu       5.00605995       7.50909005      11.76991004  F      -0.00772543       0.05483285       0.01303881
Cu       7.50909005       7.50909005      11.76991004  F      -0.03784765       0.03148683       0.03048773
Cu      10.01212003       7.50909005      11.76991004  F       0.07837633       0.07864020      -0.01965409
Cu       0.00000000      10.01212003      11.76991004  F      -0.02011310      -0.04881970       0.08158866
Cu       2.50302998      10.01212003      11.76991004  F       0.04950282      -0.04096236       0.09417388
Cu       5.00605995      10.01212003      11.76991004  F       0.05940446      -0.07721718       0.07599485
Cu       7.50909005      10.01212003      11.76991004  F       0.02014759      -0.10953625       0.05863826
Cu      10.01212003      10.01212003      11.76991004  F      -0.04357291      -0.08576829       0.08142613
Cu       1.26027885       1.23613023      13.56748856  T       0.00042005       0.00016229       0.00053280
Cu       3.77636613       1.26198692      13.58458376  T       0.00059320      -0.00084581       0.00015812
Cu       6.29733883       1.26200156      13.62279310  T       0.00082380      -0.00200838       0.00138013
Cu       8.73621601       1.25541734      13.61763574  T      -0.00136739      -0.00129108       0.00194681
Cu      11.25876837       1.26282894      13.58283284  T      -0.00089155       0.00012841       0.00105662
Cu       1.23833265       3.75025139      13.55350645  T      -0.00024225       0.00042665       0.00027630
Cu       3.75089554       3.76935978      13.58656855  T      -0.00190949      -0.00082816      -0.00074362
Cu       6.26154462       3.74383775      13.59065759  T      -0.00400372      -0.00263057      -0.00247770
Cu       8.70865639       3.74766288      13.61814674  T      -0.00574117       0.00079798       0.00701073
Cu      11.22842626       3.78210020      13.58586393  T      -0.00211081       0.00008982       0.00157211
Cu       1.24927953       6.26390610      13.56257265  T       0.00228684       0.00084711      -0.00000090
Cu       3.76007053       6.29149013      13.57787668  T       0.00203843       0.00048788       0.00027265
Cu       6.27145625       6.23935713      13.56983452  T       0.00219411      -0.00121856      -0.00157897
Cu       8.74516484       6.25074492      13.53949726  T       0.00253950      -0.00027020       0.00047138
Cu      11.24413653       6.28666153      13.59192561  T       0.00169459      -0.00007165       0.00061175
Cu       1.26588288       8.76594300      13.58171693  T      -0.00019709       0.00095498       0.00019449
Cu       3.79063779       8.76582949      13.61141967  T      -0.00028087       0.00048566      -0.00009080
Cu       6.27907585       8.71117231      13.60803146  T      -0.00118739      -0.00166448      -0.00104822
Cu       8.76622284       8.71151898      13.61316756  T      -0.00047606      -0.00060383      -0.00047750
Cu      11.25921666       8.76295263      13.60596542  T      -0.00049558       0.00071091       0.00038813
Cu       1.24974847      11.25760809      13.59485243  T       0.00070578       0.00062447       0.00051051
Cu       3.74939297      11.27096464      13.57692757  T       0.00091930       0.00029506       0.00062255
Cu       6.26005707      11.24951504      13.56684620  T      -0.00000202      -0.00229290       0.00012914
Cu       8.75824606      11.24486754      13.57072314  T      -0.00019571      -0.00181900      -0.00034111
Cu      11.27050295      11.26942377      13.57613791  T       0.00011976       0.00039709       0.00087094
Cu      12.51236876       0.00806051      15.36468921  T       0.00099212       0.00061482       0.00038139
Cu       2.51291081       0.00228915      15.36199448  T       0.00222237       0.00119172       0.00010387
Cu       5.01709306       0.01576622      15.35498748  T       0.00326433      -0.00133109       0.00068938
Cu       7.51105180      12.32651835      15.39775131  T       0.00226490      -0.01043127       0.00034919
Cu      10.01387978       0.00081561      15.35077620  T       0.00010370      -0.00007438       0.00051529
Cu       0.04355812       2.50461039      15.33710742  T      -0.00235775       0.00058158       0.00007395
Cu       2.48841540       2.50104845      15.33896111  T      -0.00248599       0.00080522       0.00080689
Cu       4.94962850       2.45891356      15.39299687  T      -0.00319455      -0.00208056       0.00059037
Cu       7.50146294       2.14427759      15.79596169  T      -0.00649561      -0.01015443       0.00704983
Cu      10.11110175       2.45447481      15.38326630  T      -0.00250265      -0.00203996       0.00113680
Cu      12.50020541       5.00807927      15.32304002  T       0.00422286       0.00060890       0.00021940
Cu       2.40510353       5.00013815      15.34539661  T       0.00440291       0.00143476       0.00030955
Pd       4.91104928       5.08490767      15.49184428  T       0.00492102      -0.00270410      -0.00313674
Y        7.51062779       4.89821074      17.27244731  T       0.00203912      -0.00266432      -0.01603123
Cu      10.02836495       5.12146431      15.39290601  T       0.00658363       0.00101947       0.00367482
Cu       0.05426070       7.50750050      15.36002943  T      -0.00025956       0.00048206       0.00032185
Cu       2.54037645       7.49384121      15.35909626  T      -0.00083193       0.00197285      -0.00006261
Cu       5.03200199       7.64505806      15.50436348  T      -0.00071494      -0.00207131      -0.00206555
Cu       7.55742633       7.40964777      15.49385615  T       0.00048633      -0.00392678      -0.00189725
Cu      10.08559824       7.60262343      15.48616427  T      -0.00013481       0.00155487       0.00059442
Cu      12.50859632      10.00725075      15.37201789  T      -0.00057258       0.00057812       0.00043965
Cu       2.51056247      10.00092572      15.37118166  T      -0.00006026       0.00132754      -0.00025667
Cu       5.01746864      10.08661135      15.36571349  T      -0.00006674      -0.00130996      -0.00033670
Cu       7.50494115       9.91179543      15.34916574  T      -0.00100038      -0.00765870       0.00048234
Cu      10.00337106      10.06099233      15.35970142  T      -0.00147993       0.00108013       0.00079802
O        5.97755751       3.57068834      16.52698566  T      -0.00913075      -0.00630114       0.01551665
O        6.14045913       6.55592356      16.68092349  T       0.00169839      -0.00215639       0.00036133
O        9.00169871       6.46147683      16.60358050  T       0.00262593      -0.00732366       0.00210390
O        8.87594357       3.72206927      16.10377508  T      -0.03644486       0.00771533      -0.05387257
C        7.64981519       1.77197242      17.76040195  T       0.01159949       0.01207184       0.00939931
O        7.59802524       0.54045402      18.31469111  T       0.00652639       0.01952577       0.02926053
O        7.73573060       2.76010174      18.53191997  T       0.02073807       0.02231408       0.00513544
H        7.62443434       0.63864766      19.29973669  T       0.01199523       0.02530054       0.01933248
108
Lattice="12.51515363 0.0 0.0 0.0 12.51515363 0.0 0.0 0.0 25.30973" Properties=species:S:1:pos:R:3:move_mask:L:1:forces:R:3 energy=-444.81532046 stress="0.007841487097550339 -5.243109836296021e-05 -5.108961080653412e-05 -5.243109836296021e-05 0.007389324170819908 -8.504326441361091e-05 -5.108961080653412e-05 -8.504326441361091e-05 0.0018867611290511723" free_energy=-444.81845914 pbc="T T T"
Cu       1.25151999       1.25151999      10.00000011  F       0.00216500      -0.02097683      -0.08282174
Cu       3.75454997       1.25151999      10.00000011  F       0.01580910      -0.00050686      -0.07400866
Cu       6.25757994       1.25151999      10.00000011  F      -0.01602287       0.01053959      -0.04931642
Cu       8.76061004       1.25151999      10.00000011  F       0.01266526       0.00394263      -0.04495120
Cu      11.26364002       1.25151999      10.00000011  F      -0.01410215      -0.00196070      -0.07153781
Cu       1.25151999       3.75454997      10.00000011  F       0.00350198       0.00310751      -0.06471456
Cu       3.75454997       3.75454997      10.00000011  F       0.01531860      -0.01196289      -0.05769462
Cu       6.25757994       3.75454997      10.00000011  F      -0.01923673      -0.01642420      -0.08768681
Cu       8.76061004       3.75454997      10.00000011  F       0.02075477      -0.01454604      -0.09253482
Cu      11.26364002       3.75454997      10.00000011  F      -0.01749497       0.00052396      -0.05497429
Cu       1.25151999       6.25757994      10.00000011  F      -0.00239419      -0.00020502      -0.07889120
Cu       3.75454997       6.25757994      10.00000011  F       0.01691406       0.02073269      -0.06443452
Cu       6.25757994       6.25757994      10.00000011  F      -0.01850767       0.01943345      -0.08108804
Cu       8.76061004       6.25757994      10.00000011  F       0.01687433       0.02025719      -0.07823458
Cu      11.26364002       6.25757994      10.00000011  F      -0.01067046       0.00799350      -0.06594216
Cu       1.25151999       8.76061004      10.00000011  F      -0.00300725       0.00593882      -0.07214095
Cu       3.75454997       8.76061004      10.00000011  F       0.00603797      -0.02143745      -0.07348279
Cu       6.25757994       8.76061004      10.00000011  F      -0.00883890      -0.02414971      -0.06113411
Cu       8.76061004       8.76061004      10.00000011  F       0.01018926      -0.01562479      -0.05447076
Cu      11.26364002       8.76061004      10.00000011  F      -0.00575415      -0.01778000      -0.07729557
Cu       1.25151999      11.26364002      10.00000011  F      -0.00529201       0.00949534      -0.01310213
Cu       3.75454997      11.26364002      10.00000011  F      -0.00461726       0.01144193      -0.07182283
Cu       6.25757994      11.26364002      10.00000011  F       0.00291429       0.01624196      -0.07561140
Cu       8.76061004      11.26364002      10.00000011  F      -0.00463774       0.00686642      -0.07424810
Cu      11.26364002      11.26364002      10.00000011  F       0.00987660       0.00808060      -0.07078524
Cu       0.00000000       0.00000000      11.76991004  F      -0.02053637       0.02634810       0.04573784
Cu       2.50302998       0.00000000      11.76991004  F       0.04419058       0.00637308       0.03545646
Cu       5.00605995       0.00000000      11.76991004  F       0.06616674       0.05529849       0.06211600
Cu       7.50909005       0.00000000      11.76991004  F       0.00463227       0.03563168       0.05354885
Cu      10.01212003       0.00000000      11.76991004  F      -0.05527442       0.05043691       0.08253007
Cu       0.00000000       2.50302998      11.76991004  F      -0.09694380       0.01996728       0.03106688
Cu       2.50302998       2.50302998      11.76991004  F       0.07314853       0.01932692       0.01652208
Cu       5.00605995       2.50302998      11.76991004  F       0.00957831      -0.04189506       0.07075019
Cu       7.50909005       2.50302998      11.76991004  F       0.00332752       0.00960724       0.24196509
Cu      10.01212003       2.50302998      11.76991004  F      -0.04683374       0.00364809       0.13332682
Cu       0.00000000       5.00605995      11.76991004  F      -0.07756189       0.04296095       0.00893592
Cu       2.50302998       5.00605995      11.76991004  F       0.05235730       0.02443785       0.01257607
Cu       5.00605995       5.00605995      11.76991004  F      -0.00410054      -0.00954925       0.10339510
Cu       7.50909005       5.00605995      11.76991004  F      -0.03234366      -0.10143201       0.17622673
Cu      10.01212003       5.00605995      11.76991004  F      -0.04156440      -0.04560716       0.10468185
Cu       0.00000000       7.50909005      11.76991004  F      -0.04973626       0.01821868       0.05249320
Cu       2.50302998       7.50909005      11.76991004  F       0.05811020       0.05317817       0.01430645
Cu       5.00605995       7.50909005      11.76991004  F      -0.00763522       0.05474424       0.01301784
Cu       7.50909005       7.50909005      11.76991004  F      -0.03773218       0.03135721       0.03053088
Cu      10.01212003       7.50909005      11.76991004  F       0.07841489       0.07850597      -0.01950292
Cu       0.00000000      10.01212003      11.76991004  F      -0.02030418      -0.04877055       0.08172113
Cu       2.50302998      10.01212003      11.76991004  F       0.04955997      -0.04107602       0.09443849
Cu       5.00605995      10.01212003      11.76991004  F       0.05954142      -0.07734580       0.07609137
Cu       7.50909005      10.01212003      11.76991004  F       0.02023045      -0.10958517       0.05867981
Cu      10.01212003      10.01212003      11.76991004  F      -0.04347576      -0.08570380       0.08145148
Cu       1.26028298       1.23613174      13.56749362  T       0.00023899       0.00013786       0.00041420
Cu       3.77637177       1.26197878      13.58458528  T       0.00045160      -0.00066557       0.00016522
Cu       6.29734672       1.26198216      13.62280652  T       0.00070754      -0.00160601       0.00105258
Cu       8.73620287       1.25540495      13.61765472  T      -0.00091773      -0.00109703       0.00132132
Cu      11.25875973       1.26283006      13.58284321  T      -0.00065005       0.00010056       0.00073044
Cu       1.23833027       3.75025552      13.55350898  T      -0.00027049       0.00024690       0.00025891
Cu       3.75087702       3.76935177      13.58656147  T      -0.00136744      -0.00064770      -0.00037007
Cu       6.26150607       3.74381247      13.59063355  T      -0.00313436      -0.00201726      -0.00177377
Cu       8.70860095       3.74767051      13.61821457  T      -0.00421027       0.00057618       0.00533756
Cu      11.22840586       3.78210108      13.58587912  T      -0.00155408      -0.00001053       0.00117299
Cu       1.24930156       6.26391424      13.56257265  T       0.00170375       0.00051460       0.00005917
Cu       3.76009018       6.29149476      13.57787947  T       0.00168332       0.00019980       0.00040887
Cu       6.27147752       6.23934536      13.56981933  T       0.00170574      -0.00105425      -0.00101806
Cu       8.74518937       6.25074229      13.53950182  T       0.00200599      -0.00024522       0.00038775
Cu      11.24415292       6.28666078      13.59193143  T       0.00135843      -0.00016428       0.00048299
Cu       1.26588088       8.76595226      13.58171870  T      -0.00020542       0.00064754       0.00019119
Cu       3.79063504       8.76583412      13.61141891  T      -0.00018883       0.00031344      -0.00000500
Cu       6.27906433       8.71115616      13.60802133  T      -0.00074579      -0.00139750      -0.00069568
Cu       8.76621821       8.71151310      13.61316300  T      -0.00028306      -0.00058260      -0.00032978
Cu      11.25921191       8.76295951      13.60596922  T      -0.00040270       0.00044340       0.00032236
Cu       1.24975523      11.25761410      13.59485724  T       0.00051746       0.00049474       0.00043624
Cu       3.74940186      11.27096752      13.57693364  T       0.00074255       0.00019648       0.00055121
Cu       6.26005707      11.24949289      13.56684746  T       0.00011759      -0.00180075       0.00009555
Cu       8.75824405      11.24485002      13.57071985  T      -0.00005196      -0.00141144      -0.00032076
Cu      11.27050408      11.26942765      13.57614651  T       0.00007474       0.00031387       0.00058587
Cu      12.51237839       0.00806639      15.36469275  T       0.00079380       0.00046861       0.00023367
Cu       2.51293234       0.00230066      15.36199549  T       0.00166998       0.00085248       0.00006689
Cu       5.01712447       0.01575332      15.35499406  T       0.00251622      -0.00108645       0.00052658
Cu       7.51107358      12.32641773      15.39775460  T       0.00177942      -0.00795073       0.00024138
Cu      10.01388078       0.00081486      15.35078126  T       0.00016878      -0.00011698       0.00033599
Cu       0.04353534       2.50461590      15.33710818  T      -0.00183765       0.00037795      -0.00007196
Cu       2.48839150       2.50105634      15.33896895  T      -0.00188361       0.00061319       0.00052554
Cu       4.94959771       2.45889341      15.39300270  T      -0.00210914      -0.00117258       0.00084250
Cu       7.50140024       2.14417960      15.79602977  T      -0.00547702      -0.00855614       0.00531140
Cu      10.11107760       2.45445503      15.38327743  T      -0.00193443      -0.00143881       0.00085574
Cu      12.50024620       5.00808515      15.32304205  T       0.00323788       0.00035078       0.00005365
Cu       2.40514595       5.00015205      15.34539965  T       0.00352906       0.00100353       0.00013683
Pd       4.91109672       5.08488164      15.49181391  T       0.00275921      -0.00177040      -0.00063961
Y        7.51064744       4.89818496      17.27229267  T       0.00009462      -0.00110134      -0.00745761
Cu      10.02842840       5.12147420      15.39294170  T       0.00562766       0.00100995       0.00253274
Cu       0.05425820       7.50750513      15.36003247  T      -0.00019373       0.00027234       0.00017127
Cu       2.54036844       7.49386023      15.35909550  T      -0.00051444       0.00133959      -0.00010731
Cu       5.03199498       7.64503816      15.50434349  T      -0.00020246      -0.00197454      -0.00138668
Cu       7.55743108       7.40960985      15.49383793  T       0.00035113      -0.00322428      -0.00132174
Cu      10.08559687       7.60263845      15.48616984  T      -0.00030587       0.00088198       0.00061422
Cu      12.50859081      10.00725639      15.37202220  T      -0.00042228       0.00038891       0.00029632
Cu       2.51056184      10.00093861      15.37117913  T      -0.00001721       0.00098722      -0.00019176
Cu       5.01746801      10.08659871      15.36571020  T      -0.00000667      -0.00107813      -0.00026558
Cu       7.50493152       9.91172146      15.34917029  T      -0.00069849      -0.00589839       0.00029636
Cu      10.00335679      10.06100271      15.35970901  T      -0.00110531       0.00072504       0.00054121
O        5.97746940       3.57062752      16.52713549  T      -0.01075271      -0.00674638       0.01235959
O        6.14047553       6.55590266      16.68092678  T       0.00014915      -0.00098678      -0.00133931
O        9.00172399       6.46140612      16.60360074  T       0.00371714      -0.00511203       0.00022846
O        8.87559202       3.72214373      16.10325522  T      -0.03319591       0.00580135      -0.05319519
C        7.64992720       1.77208881      17.76049256  T       0.01160762       0.01289674       0.01156240
O        7.59808831       0.54064237      18.31497357  T       0.00626562       0.01747398       0.02416447
O        7.73593071       2.76031713      18.53196957  T       0.01939607       0.01725467       0.00277942
H        7.62455010       0.63889183      19.29992322  T       0.01200747       0.02593333       0.02270046
108
Lattice="12.51515363 0.0 0.0 0.0 12.51515363 0.0 0.0 0.0 25.30973" Properties=species:S:1:pos:R:3:move_mask:L:1:forces:R:3 energy=-444.81599516 stress="0.00784050734913832 -5.256585878649716e-05 -5.1390095780381525e-05 -5.256585878649716e-05 0.0073874635395004265 -8.614945331750032e-05 -5.1390095780381525e-05 -8.614945331750032e-05 0.001887481230683553" free_energy=-444.81913523 pbc="T T T"
Cu       1.25151999       1.25151999      10.00000011  F       0.00234617      -0.02114135      -0.08272495
Cu       3.75454997       1.25151999      10.00000011  F       0.01568921      -0.00065703      -0.07391582
Cu       6.25757994       1.25151999      10.00000011  F      -0.01621723       0.01039357      -0.04932303
Cu       8.76061004       1.25151999      10.00000011  F       0.01268449       0.00380244      -0.04505596
Cu      11.26364002       1.25151999      10.00000011  F      -0.01383916      -0.00211885      -0.07153562
Cu       1.25151999       3.75454997      10.00000011  F       0.00371180       0.00305555      -0.06465828
Cu       3.75454997       3.75454997      10.00000011  F       0.01518717      -0.01200348      -0.05762488
Cu       6.25757994       3.75454997      10.00000011  F      -0.01942346      -0.01644939      -0.08774980
Cu       8.76061004       3.75454997      10.00000011  F       0.02076891      -0.01458269      -0.09270538
Cu      11.26364002       3.75454997      10.00000011  F      -0.01725793       0.00046577      -0.05503074
Cu       1.25151999       6.25757994      10.00000011  F      -0.00220851      -0.00011551      -0.07880393
Cu       3.75454997       6.25757994      10.00000011  F       0.01681663       0.02082489      -0.06430545
Cu       6.25757994       6.25757994      10.00000011  F      -0.01870182       0.01951826      -0.08108191
Cu       8.76061004       6.25757994      10.00000011  F       0.01687031       0.02033123      -0.07835747
Cu      11.26364002       6.25757994      10.00000011  F      -0.01042106       0.00807574      -0.06599385
Cu       1.25151999       8.76061004      10.00000011  F      -0.00283851       0.00603545      -0.07199710
Cu       3.75454997       8.76061004      10.00000011  F       0.00593390      -0.02137729      -0.07331694
Cu       6.25757994       8.76061004      10.00000011  F      -0.00905499      -0.02411295      -0.06109655
Cu       8.76061004       8.76061004      10.00000011  F       0.01020985      -0.01555869      -0.05452944
Cu      11.26364002       8.76061004      10.00000011  F      -0.00548305      -0.01768720      -0.07729804
Cu       1.25151999      11.26364002      10.00000011  F      -0.00515003       0.00943141      -0.01298872
Cu       3.75454997      11.26364002      10.00000011  F      -0.00475886       0.01138423      -0.07167355
Cu       6.25757994      11.26364002      10.00000011  F       0.00271076       0.01619273      -0.07559241
Cu       8.76061004      11.26364002      10.00000011  F      -0.00458612       0.00679266      -0.07429495
Cu      11.26364002      11.26364002      10.00000011  F       0.01016175       0.00800943      -0.07076720
Cu       0.00000000       0.00000000      11.76991004  F      -0.02015819       0.02615788       0.04584577
Cu       2.50302998       0.00000000      11.76991004  F       0.04418981       0.00615886       0.03551864
Cu       5.00605995       0.00000000      11.76991004  F       0.06587246       0.05504158       0.06211414
Cu       7.50909005       0.00000000      11.76991004  F       0.00444560       0.03540268       0.05351073
Cu      10.01212003       0.00000000      11.76991004  F      -0.05498689       0.05026653       0.08257402
Cu       0.00000000       2.50302998      11.76991004  F      -0.09664483       0.01980037       0.03118776
Cu       2.50302998       2.50302998      11.76991004  F       0.07313871       0.01910055       0.01651556
Cu       5.00605995       2.50302998      11.76991004  F       0.00918754      -0.04224078       0.07066441
Cu       7.50909005       2.50302998      11.76991004  F       0.00333178       0.00953867       0.24210523
Cu      10.01212003       2.50302998      11.76991004  F      -0.04686834       0.00369846       0.13366970
Cu       0.00000000       5.00605995      11.76991004  F      -0.07722076       0.04298347       0.00902495
Cu       2.50302998       5.00605995      11.76991004  F       0.05241757       0.02454343       0.01259675
Cu       5.00605995       5.00605995      11.76991004  F      -0.00449429      -0.00943052       0.10333067
Cu       7.50909005       5.00605995      11.76991004  F      -0.03232367      -0.10156644       0.17627395
Cu      10.01212003       5.00605995      11.76991004  F      -0.04145881      -0.04573426       0.10480982
Cu       0.00000000       7.50909005      11.76991004  F      -0.04931498       0.01845198       0.05257648
Cu       2.50302998       7.50909005      11.76991004  F       0.05816414       0.05337666       0.01435616
Cu       5.00605995       7.50909005      11.76991004  F      -0.00796733       0.05490083       0.01294881
Cu       7.50909005       7.50909005      11.76991004  F      -0.03782767       0.03143155       0.03044059
Cu      10.01212003       7.50909005      11.76991004  F       0.07875327       0.07861585      -0.01950348
Cu       0.00000000      10.01212003      11.76991004  F      -0.01995071      -0.04870518       0.08177589
Cu       2.50302998      10.01212003      11.76991004  F       0.04957047      -0.04100644       0.09453076
Cu       5.00605995      10.01212003      11.76991004  F       0.05917714      -0.07735756       0.07606383
Cu       7.50909005      10.01212003      11.76991004  F       0.02006027      -0.10964122       0.05856528
Cu      10.01212003      10.01212003      11.76991004  F      -0.04315959      -0.08571439       0.08137343