108
Lattice="12.51515363 0.0 0.0 0.0 12.51515363 0.0 0.0 0.0 25.30973" Properties=species:S:1:pos:R:3:move_mask:L:1:forces:R:3 energy=-445.17611382 stress="0.008243168005663113 -1.3552313595212837e-06 0.0001470552977376213 -1.3552313595212837e-06 0.00883572402456567 1.090493380890557e-05 0.0001470552977376213 1.090493380890557e-05 0.0027582650892717356" free_energy=-445.17932115 pbc="T T T"
Cu       1.25151999       1.25151999      10.00000011  F       0.00291370      -0.01055545      -0.07065052
Cu       3.75454997       1.25151999      10.00000011  F       0.00146669       0.01252462      -0.07358653
Cu       6.25757994       1.25151999      10.00000011  F      -0.00302452       0.03035647      -0.05807821
Cu       8.76061004       1.25151999      10.00000011  F       0.00651903       0.01310036      -0.05455042
Cu      11.26364002       1.25151999      10.00000011  F      -0.01007193      -0.00472460      -0.07453855
Cu       1.25151999       3.75454997      10.00000011  F       0.00438727       0.00929535      -0.07509567
Cu       3.75454997       3.75454997      10.00000011  F       0.01408683      -0.01642364      -0.05428409
Cu       6.25757994       3.75454997      10.00000011  F      -0.01030847      -0.02479861      -0.07945676
Cu       8.76061004       3.75454997      10.00000011  F       0.00552717      -0.01920313      -0.08084238
Cu      11.26364002       3.75454997      10.00000011  F      -0.00988954       0.00377328      -0.05466786
Cu       1.25151999       6.25757994      10.00000011  F       0.00382831      -0.00785860      -0.07693132
Cu       3.75454997       6.25757994      10.00000011  F       0.01547327       0.01710119      -0.05460507
Cu       6.25757994       6.25757994      10.00000011  F      -0.01030418       0.02679743      -0.08248167
Cu       8.76061004       6.25757994      10.00000011  F       0.00429286       0.01992219      -0.08137568
Cu      11.26364002       6.25757994      10.00000011  F      -0.00941708      -0.00235233      -0.05606817
Cu       1.25151999       8.76061004      10.00000011  F       0.00315221       0.00737757      -0.06953455
Cu       3.75454997       8.76061004      10.00000011  F       0.00083979      -0.01462444      -0.07265478
Cu       6.25757994       8.76061004      10.00000011  F      -0.00289646      -0.03405990      -0.05594948
Cu       8.76061004       8.76061004      10.00000011  F       0.00702419      -0.01536971      -0.05394575
Cu      11.26364002       8.76061004      10.00000011  F      -0.01022008       0.00142406      -0.07333801
Cu       1.25151999      11.26364002      10.00000011  F       0.00123278       0.00180940      -0.01199639
Cu       3.75454997      11.26364002      10.00000011  F      -0.00953760       0.00152150      -0.06752862
Cu       6.25757994      11.26364002      10.00000011  F      -0.00683252       0.00188325      -0.06472055
Cu       8.76061004      11.26364002      10.00000011  F       0.00399378       0.00151367      -0.06834481
Cu      11.26364002      11.26364002      10.00000011  F       0.00640731       0.00202904      -0.06562363
Cu       0.00000000       0.00000000      11.76991004  F      -0.01171433       0.03978246       0.15644013
Cu       2.50302998       0.00000000      11.76991004  F       0.03762267       0.03575069       0.11660010
Cu       5.00605995       0.00000000      11.76991004  F       0.04685879       0.09288925       0.11898130
Cu       7.50909005       0.00000000      11.76991004  F       0.02397895       0.06298541       0.11321299
Cu      10.01212003       0.00000000      11.76991004  F      -0.00299244       0.07530659       0.11974540
Cu       0.00000000       2.50302998      11.76991004  F      -0.07773333       0.01761631       0.11393643
Cu       2.50302998       2.50302998      11.76991004  F       0.05900347       0.01895034       0.10820180
Cu       5.00605995       2.50302998      11.76991004  F       0.00660578      -0.02759691       0.13094479
Cu       7.50909005       2.50302998      11.76991004  F      -0.03458160       0.00588075       0.14275537
Cu      10.01212003       2.50302998      11.76991004  F       0.06989971      -0.07576397       0.04953540
Cu       0.00000000       5.00605995      11.76991004  F      -0.10825342       0.00109317       0.07724376
Cu       2.50302998       5.00605995      11.76991004  F       0.03908491       0.00126122       0.09064696
Cu       5.00605995       5.00605995      11.76991004  F      -0.01470092       0.00281261       0.25082097
Cu       7.50909005       5.00605995      11.76991004  F      -0.06313564       0.00364292       0.17565458
Cu      10.01212003       5.00605995      11.76991004  F       0.04029992       0.00155819       0.05403844
Cu       0.00000000       7.50909005      11.76991004  F      -0.07572067      -0.02115906       0.11429505
Cu       2.50302998       7.50909005      11.76991004  F       0.06053301      -0.02076745       0.10761336
Cu       5.00605995       7.50909005      11.76991004  F       0.00987935       0.02398069       0.13247297
Cu       7.50909005       7.50909005      11.76991004  F      -0.03350169      -0.00835935       0.14391699
Cu      10.01212003       7.50909005      11.76991004  F       0.07274432       0.07341854       0.04909976
Cu       0.00000000      10.01212003      11.76991004  F      -0.01047853      -0.03736940       0.15310981
Cu       2.50302998      10.01212003      11.76991004  F       0.03950516      -0.03393239       0.11512673
Cu       5.00605995      10.01212003      11.76991004  F       0.04740553      -0.08997440       0.11699175
Cu       7.50909005      10.01212003      11.76991004  F       0.02528681      -0.05917699       0.11061673
Cu      10.01212003      10.01212003      11.76991004  F      -0.00273515      -0.07269343       0.11768019
Cu       1.27136377       1.24593949      13.59069176  T      -0.00242459      -0.01535990       0.00043760
Cu       3.78808633       1.26303619      13.60893577  T      -0.01037115      -0.00998730      -0.01800213
Cu       6.29500025       1.28131132      13.61581800  T       0.00360846      -0.00224379      -0.00867690
Cu       8.78250393       1.27721623      13.61507819  T       0.00092405      -0.00692041      -0.00524775
Cu      11.26959523       1.26577663      13.61768282  T       0.01294683      -0.01224573      -0.01681739
Cu       1.23417261       3.75302950      13.57264744  T      -0.00416182       0.00187476      -0.01075332
Cu       3.76162804       3.76375274      13.60614031  T      -0.01819844       0.00745910      -0.00970973
Cu       6.25353292       3.78305911      13.60943969  T      -0.00968981       0.01814970      -0.02965624
Cu       8.74406939       3.76758963      13.56112164  T      -0.00702394       0.00038974      -0.04950029
Cu      11.21742819       3.75862065      13.61186208  T       0.00491448      -0.00060184      -0.00612040
Cu       1.23522614       6.25938363      13.57216656  T      -0.00559409      -0.00084341      -0.01069788
Cu       3.76293149       6.24826091      13.60613297  T      -0.01872076      -0.00768122      -0.01003934
Cu       6.25531996       6.22994148      13.60983553  T      -0.00995705      -0.02005528      -0.02855885
Cu       8.74525583       6.24557566      13.56146510  T      -0.00631564      -0.00325355      -0.04953831
Cu      11.21873127       6.25303544      13.61143637  T       0.00319992      -0.00019891      -0.00739996
Cu       1.27237625       8.76666725      13.59053104  T      -0.00270566       0.01280087       0.00022281
Cu       3.78917489       8.74912589      13.60862548  T      -0.01084871       0.01080128      -0.01630426
Cu       6.29619533       8.73188752      13.61574814  T       0.00253640       0.00475596      -0.00836017
Cu       8.78382428       8.73626895      13.61429891  T       0.00000588       0.00981097      -0.00335627
Cu      11.27086502       8.74584241      13.61752134  T       0.01143369       0.01357997      -0.01567432
Cu       1.24689514      11.26390547      13.61186183  T      -0.01491642       0.00171304      -0.01339788
Cu       3.73948373      11.26365278      13.58250330  T      -0.01165930       0.00162546       0.00068441
Cu       6.25595948      11.26415064      13.57272008  T      -0.00209981       0.00275566      -0.01315317
Cu       8.76721366      11.26426065      13.58039551  T      -0.00850819       0.00145254      -0.01035660
Cu      11.27045477      11.26334278      13.59189144  T       0.02472010       0.00140281       0.00088207
Cu      12.51147668       0.00707982      15.40308736  T      -0.00080181       0.00922301      -0.08352904
Cu       2.50599344       0.00699747      15.39770575  T       0.01323280       0.01169490      -0.08031259
Cu       5.00557787      12.48083282      15.36804249  T       0.00837246      -0.00332022      -0.04811364
Cu       7.51252746      12.49344897      15.36190640  T      -0.00477421       0.00269926      -0.05950764
Cu      10.01494520      12.50105143      15.38356141  T      -0.01355223       0.00248081      -0.06262812
Cu       0.07608375       2.50921184      15.37696139  T       0.01513656       0.00517326      -0.04327441
Cu       2.54176275       2.51195428      15.37397889  T       0.01579648       0.01295147      -0.04370906
Cu       5.01097428       2.42114595      15.45266962  T      -0.04889055      -0.05209902      -0.08467207
Cu       7.63183442       2.49683860      15.45829876  T       0.05304302      -0.08168576      -0.12262468
Cu      10.13149682       2.47032976      15.49120268  T       0.04388191      -0.05430009      -0.07625445
Cu      12.40619245       5.00623892      15.35919598  T      -0.01833939       0.00102807      -0.05462390
Cu       2.28879845       5.00698582      15.40161712  T      -0.02687858       0.00073551      -0.03503329
Pd       4.73977190       5.00687281      15.71544688  T      -0.04688273       0.00147099      -0.02657881
Y        7.44249266       5.00998808      17.28642790  T      -0.10187634      -0.00005601       0.07997982
Cu       9.91707156       5.00540779      15.47627399  T       0.09648278       0.00098710      -0.15436932
Cu       0.07984906       7.50296063      15.37705554  T       0.01375712      -0.01220784      -0.04350050
Cu       2.54480681       7.50106709      15.37350231  T       0.01549489      -0.02075623      -0.04303670
Cu       5.01331298       7.59044743      15.45232010  T      -0.04830435       0.05152447      -0.08317671
Cu       7.63671008       7.52076857      15.45819322  T       0.05452524       0.07718654      -0.11981700
Cu      10.13605509       7.54063863      15.49115307  T       0.04100112       0.05782129      -0.07587023
Cu      12.51109421      10.00487250      15.40308761  T      -0.00095255      -0.00781773      -0.08310105
Cu       2.50559270      10.00592089      15.39754807  T       0.01394064      -0.01077858      -0.08084755
Cu       5.00521743      10.04639390      15.36773397  T       0.01072948       0.00143220      -0.04775635
Cu       7.51250356      10.03796482      15.36166545  T      -0.00530956      -0.01048215      -0.05994523
Cu      10.01450216      10.02459838      15.38344777  T      -0.01396415      -0.00357425      -0.06329868
O        6.27273442       3.37148339      16.51739580  T      -0.06771519      -0.01132801       0.03834858
O        6.27910238       6.65352211      16.52185462  T      -0.07036591       0.00895281       0.03749141
O        9.02266722       6.42483922      16.58396166  T       0.04588314       0.11097306       0.11166993
O        9.01663530       3.58716705      16.58269972  T       0.04927296      -0.10585083       0.11457212
C        4.33852105       5.01421069      17.69682391  T      -0.66182403       0.00164634       0.26048544
O        3.02900359       5.01932877      18.12401317  T       0.72571146      -0.00213624      -0.38035325
O        5.25951859       5.01377842      18.53302524  T      -0.14791962      -0.00188568       0.05846608
H        3.03338727       5.02250661      19.10528887  T      -0.00080879       0.00052230       0.34518286
108
Lattice="12.51515363 0.0 0.0 0.0 12.51515363 0.0 0.0 0.0 25.30973" Properties=species:S:1:pos:R:3:move_mask:L:1:forces:R:3 energy=-445.18882951 stress="0.008112258181317234 -9.378304367278407e-07 0.00018124670915183036 -9.378304367278407e-07 0.008804509107713975 1.1110185836510243e-05 0.00018124670915183036 1.1110185836510243e-05 0.002784676571907696" free_energy=-445.19204606 pbc="T T T"
Cu       1.25151999       1.25151999      10.00000011  F       0.00266052      -0.01115221      -0.07060461
Cu       3.75454997       1.25151999      10.00000011  F       0.00118523       0.01240439      -0.07358992
Cu       6.25757994       1.25151999      10.00000011  F      -0.00325314       0.03035326      -0.05808086
Cu       8.76061004       1.25151999      10.00000011  F       0.00656832       0.01297897      -0.05469017
Cu      11.26364002       1.25151999      10.00000011  F      -0.01001624      -0.00546194      -0.07464475
Cu       1.25151999       3.75454997      10.00000011  F       0.00424707       0.00923149      -0.07513305
Cu       3.75454997       3.75454997      10.00000011  F       0.01391271      -0.01640105      -0.05430603
Cu       6.25757994       3.75454997      10.00000011  F      -0.01055490      -0.02478889      -0.07953936
Cu       8.76061004       3.75454997      10.00000011  F       0.00548213      -0.01924970      -0.08086393
Cu      11.26364002       3.75454997      10.00000011  F      -0.00995207       0.00368684      -0.05476087
Cu       1.25151999       6.25757994      10.00000011  F       0.00369017      -0.00774853      -0.07694499
Cu       3.75454997       6.25757994      10.00000011  F       0.01528869       0.01711677      -0.05460522
Cu       6.25757994       6.25757994      10.00000011  F      -0.01055716       0.02681311      -0.08254713
Cu       8.76061004       6.25757994      10.00000011  F       0.00424986       0.01999879      -0.08138289
Cu      11.26364002       6.25757994      10.00000011  F      -0.00946994      -0.00222967      -0.05614007
Cu       1.25151999       8.76061004      10.00000011  F       0.00290056       0.00796685      -0.06943233
Cu       3.75454997       8.76061004      10.00000011  F       0.00054476      -0.01450461      -0.07261041
Cu       6.25757994       8.76061004      10.00000011  F      -0.00312951      -0.03405340      -0.05591864
Cu       8.76061004       8.76061004      10.00000011  F       0.00708173      -0.01525009      -0.05405898
Cu      11.26364002       8.76061004      10.00000011  F      -0.01015467       0.00216634      -0.07339418
Cu       1.25151999      11.26364002      10.00000011  F       0.00045007       0.00179072      -0.01336969
Cu       3.75454997      11.26364002      10.00000011  F      -0.01031174       0.00150596      -0.06762586
Cu       6.25757994      11.26364002      10.00000011  F      -0.00706030       0.00187653      -0.06490144
Cu       8.76061004      11.26364002      10.00000011  F       0.00464025       0.00150671      -0.06844110
Cu      11.26364002      11.26364002      10.00000011  F       0.00682957       0.00201598      -0.06773065
Cu       0.00000000       0.00000000      11.76991004  F      -0.01176542       0.03927069       0.15453566
Cu       2.50302998       0.00000000      11.76991004  F       0.03706273       0.03538438       0.11547236
Cu       5.00605995       0.00000000      11.76991004  F       0.04639325       0.09286505       0.11832383
Cu       7.50909005       0.00000000      11.76991004  F       0.02393066       0.06299427       0.11234970
Cu      10.01212003       0.00000000      11.76991004  F      -0.00252336       0.07476961       0.11880034
Cu       0.00000000       2.50302998      11.76991004  F      -0.07772508       0.01733726       0.11336404
Cu       2.50302998       2.50302998      11.76991004  F       0.05856559       0.01878157       0.10795754
Cu       5.00605995       2.50302998      11.76991004  F       0.00614340      -0.02748436       0.13072862
Cu       7.50909005       2.50302998      11.76991004  F      -0.03497440       0.00552502       0.14170779
Cu      10.01212003       2.50302998      11.76991004  F       0.07024915      -0.07623882       0.04863012
Cu       0.00000000       5.00605995      11.76991004  F      -0.10843808       0.00111407       0.07659093
Cu       2.50302998       5.00605995      11.76991004  F       0.03885498       0.00129150       0.09009771
Cu       5.00605995       5.00605995      11.76991004  F      -0.01544493       0.00283574       0.24969123
Cu       7.50909005       5.00605995      11.76991004  F      -0.06381546       0.00366036       0.17367229
Cu      10.01212003       5.00605995      11.76991004  F       0.04080063       0.00154035       0.05259645
Cu       0.00000000       7.50909005      11.76991004  F      -0.07575236      -0.02083102       0.11372528
Cu       2.50302998       7.50909005      11.76991004  F       0.06010803      -0.02056168       0.10737280
Cu       5.00605995       7.50909005      11.76991004  F       0.00941210       0.02390476       0.13232726
Cu       7.50909005       7.50909005      11.76991004  F      -0.03389299      -0.00797976       0.14298844
Cu      10.01212003       7.50909005      11.76991004  F       0.07305951       0.07395550       0.04824967
Cu       0.00000000      10.01212003      11.76991004  F      -0.01052333      -0.03687854       0.15126916
Cu       2.50302998      10.01212003      11.76991004  F       0.03893377      -0.03358939       0.11407948
Cu       5.00605995      10.01212003      11.76991004  F       0.04692909      -0.08993168       0.11640009
Cu       7.50909005      10.01212003      11.76991004  F       0.02522357      -0.05915851       0.10981114
Cu      10.01212003      10.01212003      11.76991004  F      -0.00226216      -0.07215157       0.11677350
Cu       1.27134037       1.24579131      13.59069606  T      -0.00211884      -0.01354639      -0.00250859
Cu       3.78798620       1.26293982      13.60876190  T      -0.01014182      -0.00953263      -0.02052770
Cu       6.29503505       1.28128966      13.61573447  T       0.00273035      -0.00166894      -0.01111586
Cu       8.78251294       1.27714940      13.61502757  T       0.00223126      -0.00731665      -0.00966912
Cu      11.26972013       1.26565849      13.61752058  T       0.01254398      -0.01142922      -0.01948082
Cu       1.23413257       3.75304765      13.57254367  T      -0.00413358       0.00121680      -0.01230765
Cu       3.76145245       3.76382470      13.60604667  T      -0.01711256       0.00719450      -0.01020522
Cu       6.25343943       3.78323420      13.60915369  T      -0.00958378       0.01622883      -0.02694663
Cu       8.74400168       3.76759339      13.56064405  T      -0.00661689       0.00026490      -0.04645556
Cu      11.21747562       3.75861489      13.61180311  T       0.00458896      -0.00186507      -0.00930432
Cu       1.23517207       6.25937549      13.57206329  T      -0.00551014      -0.00031196      -0.01242371
Cu       3.76275090       6.24818682      13.60603604  T      -0.01755532      -0.00733162      -0.01064562
Cu       6.25522384       6.22974799      13.60956016  T      -0.00984573      -0.01785713      -0.02591031
Cu       8.74519488       6.24554425      13.56098725  T      -0.00602322      -0.00289009      -0.04651357
Cu      11.21876218       6.25303344      13.61136500  T       0.00292674       0.00117744      -0.01051130
Cu       1.27235022       8.76679078      13.59053332  T      -0.00242428       0.01122925      -0.00250189
Cu       3.78907027       8.74923014      13.60846805  T      -0.01067364       0.01026821      -0.01886719
Cu       6.29621973       8.73193332      13.61566740  T       0.00167426       0.00395311      -0.01088425
Cu       8.78382440       8.73636356      13.61426651  T       0.00132093       0.00991390      -0.00803829
Cu      11.27097528       8.74597332      13.61736999  T       0.01119329       0.01265500      -0.01837242
Cu       1.24675122      11.26392199      13.61173250  T      -0.01326744       0.00147181      -0.01555679
Cu       3.73937121      11.26366855      13.58251014  T      -0.01103161       0.00148179      -0.00204506
Cu       6.25593933      11.26417717      13.57259303  T      -0.00268262       0.00256606      -0.01469763
Cu       8.76713157      11.26427466      13.58029554  T      -0.00750438       0.00136459      -0.01235205
Cu      11.27069331      11.26335643      13.59190005  T       0.02191286       0.00129880      -0.00221982
Cu      12.51146904       0.00716881      15.40228150  T      -0.00083127       0.00899127      -0.07942559
Cu       2.50612109       0.00711036      15.39693077  T       0.01262154       0.01140717      -0.07678235
Cu       5.00565871      12.48080078      15.36757806  T       0.00786944      -0.00405701      -0.04622354
Cu       7.51248141      12.49347513      15.36133238  T      -0.00513293       0.00068565      -0.05684378
Cu      10.01481441      12.50107533      15.38295726  T      -0.01301823       0.00083211      -0.06038294
Cu       0.07622980       2.50926165      15.37654378  T       0.01615831       0.00559910      -0.04125863
Cu       2.54191518       2.51207918      15.37355723  T       0.01342915       0.01275482      -0.04326604
Cu       5.01050258       2.42064334      15.45185263  T      -0.03961462      -0.04266351      -0.07575602
Cu       7.63234629       2.49605040      15.45711553  T       0.04208832      -0.06517953      -0.10391369
Cu      10.13192021       2.46980575      15.49046692  T       0.03606838      -0.04500752      -0.06644406
Cu      12.40601548       5.00624880      15.35866903  T      -0.01435705       0.00086158      -0.05179542
Cu       2.28853914       5.00699295      15.40127898  T      -0.02750541       0.00056269      -0.04024064
Pd       4.73931960       5.00688695      15.71519050  T      -0.04430242       0.00144147      -0.00260220
Y        7.44150972       5.00998746      17.28719959  T      -0.09540676      -0.00042073       0.07581514
Cu       9.91800244       5.00541730      15.47478451  T       0.07689559       0.00114393      -0.13224412
Cu       0.07998172       7.50284274      15.37663591  T       0.01465232      -0.01226705      -0.04143114
Cu       2.54495624       7.50086684      15.37308698  T       0.01310596      -0.02006924      -0.04257516
Cu       5.01284692       7.59094454      15.45151753  T      -0.03909746       0.04266068      -0.07456341
Cu       7.63723609       7.52151334      15.45703707  T       0.04272051       0.06083663      -0.10107438
Cu      10.13645069       7.54119643      15.49042111  T       0.03360828       0.04852115      -0.06633430
Cu      12.51108495      10.00479703      15.40228580  T      -0.00091295      -0.00780812      -0.07927980
Cu       2.50572724      10.00581689      15.39676802  T       0.01322140      -0.01055283      -0.07740302
Cu       5.00532093      10.04640779      15.36727333  T       0.01014543       0.00227114      -0.04602430
Cu       7.51245225      10.03786370      15.36108713  T      -0.00555840      -0.00807517      -0.05732985
Cu      10.01436737      10.02456397      15.38283704  T      -0.01342689      -0.00173639      -0.06098878
O        6.27208100       3.37137401      16.51776583  T      -0.06478035      -0.01716059       0.02352268
O        6.27842343       6.65360859      16.52221629  T      -0.06732084       0.01470070       0.02283265
O        9.02310988       6.42590989      16.58503909  T       0.04735854       0.10355807       0.09642094
O        9.01711075       3.58614581      16.58380524  T       0.05073668      -0.09902031       0.09909497
C        4.33213545       5.01422659      17.69933742  T      -0.23278821       0.00026030       0.15590585
O        3.03600569       5.01930824      18.12034351  T       0.36128185      -0.00030923       0.03101991
O        5.25809149       5.01376015      18.53358940  T      -0.19024559      -0.00188443       0.01722133
H        3.03337951       5.02251175      19.10861937  T       0.00362003      -0.00040951       0.06021282
108
Lattice="12.51515363 0.0 0.0 0.0 12.51515363 0.0 0.0 0.0 25.30973" Properties=species:S:1:pos:R:3:move_mask:L:1:forces:R:3 energy=-445.19403334000003 stress="0.007976181342366022 -6.056760455757114e-07 0.0001703352092753244 -6.056760455757114e-07 0.008769855237922593 1.0639263972962349e-05 0.0001703352092753244 1.0639263972962349e-05 0.002704785560930337" free_energy=-445.19724364 pbc="T T T"
Cu       1.25151999       1.25151999      10.00000011  F       0.00227728      -0.01114670      -0.07064435
Cu       3.75454997       1.25151999      10.00000011  F       0.00110470       0.01241808      -0.07404441
Cu       6.25757994       1.25151999      10.00000011  F      -0.00315887       0.03035370      -0.05847896
Cu       8.76061004       1.25151999      10.00000011  F       0.00678966       0.01295359      -0.05485155
Cu      11.26364002       1.25151999      10.00000011  F      -0.01003359      -0.00549735      -0.07458197
Cu       1.25151999       3.75454997      10.00000011  F       0.00389854       0.00936182      -0.07530877
Cu       3.75454997       3.75454997      10.00000011  F       0.01370279      -0.01629969      -0.05490768
Cu       6.25757994       3.75454997      10.00000011  F      -0.01045299      -0.02476968      -0.08022776
Cu       8.76061004       3.75454997      10.00000011  F       0.00578965      -0.01919211      -0.08106966
Cu      11.26364002       3.75454997      10.00000011  F      -0.00995843       0.00381182      -0.05467469
Cu       1.25151999       6.25757994      10.00000011  F       0.00334352      -0.00785768      -0.07712095
Cu       3.75454997       6.25757994      10.00000011  F       0.01507986       0.01703706      -0.05520110
Cu       6.25757994       6.25757994      10.00000011  F      -0.01045129       0.02682071      -0.08323944
Cu       8.76061004       6.25757994      10.00000011  F       0.00455178       0.01996261      -0.08159108
Cu      11.26364002       6.25757994      10.00000011  F      -0.00947812      -0.00233075      -0.05606044
Cu       1.25151999       8.76061004      10.00000011  F       0.00251641       0.00796793      -0.06946911
Cu       3.75454997       8.76061004      10.00000011  F       0.00046209      -0.01451645      -0.07305372
Cu       6.25757994       8.76061004      10.00000011  F      -0.00303826      -0.03405658      -0.05631232
Cu       8.76061004       8.76061004      10.00000011  F       0.00730384      -0.01522608      -0.05420251
Cu      11.26364002       8.76061004      10.00000011  F      -0.01016774       0.00220425      -0.07332586
Cu       1.25151999      11.26364002      10.00000011  F       0.00004802       0.00178324      -0.01346079
Cu       3.75454997      11.26364002      10.00000011  F      -0.01041623       0.00150051      -0.06794948
Cu       6.25757994      11.26364002      10.00000011  F      -0.00698058       0.00186996      -0.06528382
Cu       8.76061004      11.26364002      10.00000011  F       0.00492263       0.00150926      -0.06846399
Cu      11.26364002      11.26364002      10.00000011  F       0.00680693       0.00200696      -0.06746668
Cu       0.00000000       0.00000000      11.76991004  F      -0.01201123       0.03920984       0.15290353
Cu       2.50302998       0.00000000      11.76991004  F       0.03653304       0.03523076       0.11440238
Cu       5.00605995       0.00000000      11.76991004  F       0.04631642       0.09274438       0.11746813
Cu       7.50909005       0.00000000      11.76991004  F       0.02426215       0.06297112       0.11124677
Cu      10.01212003       0.00000000      11.76991004  F      -0.00217220       0.07429438       0.11807585
Cu       0.00000000       2.50302998      11.76991004  F      -0.07789932       0.01736050       0.11257528
Cu       2.50302998       2.50302998      11.76991004  F       0.05779960       0.01876008       0.10744346
Cu       5.00605995       2.50302998      11.76991004  F       0.00582957      -0.02744621       0.13025824
Cu       7.50909005       2.50302998      11.76991004  F      -0.03497410       0.00490069       0.14022613
Cu      10.01212003       2.50302998      11.76991004  F       0.07097867      -0.07667184       0.04739378
Cu       0.00000000       5.00605995      11.76991004  F      -0.10880798       0.00110526       0.07548742
Cu       2.50302998       5.00605995      11.76991004  F       0.03806479       0.00129983       0.08901582
Cu       5.00605995       5.00605995      11.76991004  F      -0.01638475       0.00284314       0.24819013
Cu       7.50909005       5.00605995      11.76991004  F      -0.06411748       0.00366032       0.17086248
Cu      10.01212003       5.00605995      11.76991004  F       0.04198869       0.00148878       0.05050308
Cu       0.00000000       7.50909005      11.76991004  F      -0.07597745      -0.02081146       0.11293717
Cu       2.50302998       7.50909005      11.76991004  F       0.05937019      -0.02051196       0.10686030
Cu       5.00605995       7.50909005      11.76991004  F       0.00909687       0.02390144       0.13193919
Cu       7.50909005       7.50909005      11.76991004  F      -0.03389790      -0.00733889       0.14165146
Cu      10.01212003       7.50909005      11.76991004  F       0.07372452       0.07445343       0.04708437
Cu       0.00000000      10.01212003      11.76991004  F      -0.01076538      -0.03680493       0.14973745
Cu       2.50302998      10.01212003      11.76991004  F       0.03840419      -0.03342947       0.11312094
Cu       5.00605995      10.01212003      11.76991004  F       0.04683924      -0.08976027       0.11563137
Cu       7.50909005      10.01212003      11.76991004  F       0.02553259      -0.05906833       0.10877653
Cu      10.01212003      10.01212003      11.76991004  F      -0.00192016      -0.07163066       0.11610246