108
Lattice="12.51515363 0.0 0.0 0.0 12.51515363 0.0 0.0 0.0 25.30973" Properties=species:S:1:pos:R:3:move_mask:L:1:forces:R:3 energy=-445.14187595 stress="0.008201020486392558 -5.558226155836314e-05 0.0003824230999539 -5.558226155836314e-05 0.008377458992815683 4.5761989688371814e-05 0.0003824230999539 4.5761989688371814e-05 0.0032592139731714652" free_energy=-445.1421965 pbc="T T T"
Cu       1.25151999       1.25151999      10.00000011  F       0.00476947       0.00423912      -0.06180423
Cu       3.75454997       1.25151999      10.00000011  F       0.00484176       0.01860542      -0.06622937
Cu       6.25757994       1.25151999      10.00000011  F      -0.00926510       0.02664206      -0.06351444
Cu       8.76061004       1.25151999      10.00000011  F       0.01150643       0.00407253      -0.05260412
Cu      11.26364002       1.25151999      10.00000011  F      -0.01318726      -0.00408252      -0.07388060
Cu       1.25151999       3.75454997      10.00000011  F      -0.00458300       0.00337367      -0.07019091
Cu       3.75454997       3.75454997      10.00000011  F       0.01770438      -0.02046168      -0.05478287
Cu       6.25757994       3.75454997      10.00000011  F      -0.02043061      -0.02728208      -0.07768026
Cu       8.76061004       3.75454997      10.00000011  F       0.00816189      -0.01549444      -0.06604601
Cu      11.26364002       3.75454997      10.00000011  F       0.00188782       0.00027934      -0.05993601
Cu       1.25151999       6.25757994      10.00000011  F      -0.00707856      -0.00778257      -0.06030602
Cu       3.75454997       6.25757994      10.00000011  F       0.01748911       0.01484557      -0.04597436
Cu       6.25757994       6.25757994      10.00000011  F      -0.01793535       0.02365067      -0.07848696
Cu       8.76061004       6.25757994      10.00000011  F       0.00952238       0.01894096      -0.07481032
Cu      11.26364002       6.25757994      10.00000011  F       0.00110576      -0.00602009      -0.05682211
Cu       1.25151999       8.76061004      10.00000011  F       0.00618019       0.00663614      -0.05853617
Cu       3.75454997       8.76061004      10.00000011  F      -0.00587180      -0.01241855      -0.05453901
Cu       6.25757994       8.76061004      10.00000011  F       0.00399492      -0.02431244      -0.05819632
Cu       8.76061004       8.76061004      10.00000011  F       0.00157714      -0.01077147      -0.05229393
Cu      11.26364002       8.76061004      10.00000011  F      -0.00753567       0.00228137      -0.07098002
Cu       1.25151999      11.26364002      10.00000011  F       0.01013182      -0.00635730      -0.02123147
Cu       3.75454997      11.26364002      10.00000011  F      -0.01909543      -0.00080500      -0.06684804
Cu       6.25757994      11.26364002      10.00000011  F       0.00187098       0.00138742      -0.05325310
Cu       8.76061004      11.26364002      10.00000011  F       0.01046430       0.00232487      -0.06326490
Cu      11.26364002      11.26364002      10.00000011  F      -0.00533273       0.00683197      -0.04771675
Cu       0.00000000       0.00000000      11.76991004  F      -0.02464539       0.05394591       0.13670628
Cu       2.50302998       0.00000000      11.76991004  F       0.03177756       0.04753428       0.10140865
Cu       5.00605995       0.00000000      11.76991004  F       0.06040801       0.11060120       0.10323894
Cu       7.50909005       0.00000000      11.76991004  F       0.02361777       0.08276382       0.11271120
Cu      10.01212003       0.00000000      11.76991004  F      -0.02582119       0.09039368       0.13403319
Cu       0.00000000       2.50302998      11.76991004  F      -0.05308460       0.03023241       0.12074264
Cu       2.50302998       2.50302998      11.76991004  F       0.06148057       0.02887792       0.11890975
Cu       5.00605995       2.50302998      11.76991004  F       0.02045282      -0.00026025       0.11001575
Cu       7.50909005       2.50302998      11.76991004  F      -0.01935620      -0.00971785       0.14086546
Cu      10.01212003       2.50302998      11.76991004  F       0.03438725      -0.07429914       0.07732782
Cu       0.00000000       5.00605995      11.76991004  F      -0.04980601       0.02596573       0.09718954
Cu       2.50302998       5.00605995      11.76991004  F       0.07499547       0.02637628       0.17153589
Cu       5.00605995       5.00605995      11.76991004  F      -0.03486978       0.02087401       0.23603481
Cu       7.50909005       5.00605995      11.76991004  F      -0.06543114       0.00270170       0.16358407
Cu      10.01212003       5.00605995      11.76991004  F       0.03123062      -0.00602513       0.08225582
Cu       0.00000000       7.50909005      11.76991004  F      -0.01524926      -0.05015394       0.15026043
Cu       2.50302998       7.50909005      11.76991004  F       0.05584283      -0.03214198       0.12224169
Cu       5.00605995       7.50909005      11.76991004  F      -0.01320837       0.03568609       0.11811819
Cu       7.50909005       7.50909005      11.76991004  F      -0.01716440       0.00689897       0.12292880
Cu      10.01212003       7.50909005      11.76991004  F       0.05268732       0.06480943       0.06873462
Cu       0.00000000      10.01212003      11.76991004  F       0.02564094      -0.07893176       0.16535153
Cu       2.50302998      10.01212003      11.76991004  F       0.02977202      -0.04686257       0.09947371
Cu       5.00605995      10.01212003      11.76991004  F       0.02391854      -0.08811053       0.12644863
Cu       7.50909005      10.01212003      11.76991004  F       0.03314600      -0.04955855       0.10758089
Cu      10.01212003      10.01212003      11.76991004  F      -0.02915984      -0.08328738       0.12338638
Cu       1.26584684       1.24607853      13.58436635  T      -0.00436132      -0.01457044      -0.00197456
Cu       3.79000227       1.27152184      13.60710385  T      -0.00785073      -0.01085552      -0.01789272
Cu       6.28983600       1.29161429      13.62430789  T      -0.00368736      -0.01032619      -0.00636529
Cu       8.76663609       1.27923881      13.62608818  T      -0.00001286      -0.00921168      -0.01025603
Cu      11.26511017       1.26210656      13.61543734  T       0.01119332      -0.01294995      -0.02259045
Cu       1.25164051       3.76162053      13.58610083  T       0.00626510       0.00107622       0.00114639
Cu       3.76191764       3.76235842      13.61230425  T      -0.01234106      -0.00449076      -0.01943116
Cu       6.26749996       3.78063217      13.60480345  T      -0.00019611       0.00969547      -0.03940668
Cu       8.74357116       3.76128813      13.56717725  T      -0.00125990       0.00766100      -0.03708280
Cu      11.23046034       3.75556432      13.60574093  T      -0.00435899       0.00651077       0.00990699
Cu       1.26444752       6.24936675      13.60902765  T       0.01210150       0.00000786      -0.00217023
Cu       3.74826398       6.27867286      13.61753830  T      -0.01344182       0.00258717      -0.01980772
Cu       6.26655393       6.24302031      13.59797919  T       0.00432045      -0.00915924      -0.03945905
Cu       8.74685364       6.24620016      13.56313529  T      -0.00370565      -0.00561881      -0.03957245
Cu      11.23541009       6.24955598      13.60473790  T      -0.00600090      -0.00697947       0.00930625
Cu       1.28792808       8.74922150      13.60673332  T      -0.00558706       0.01157571      -0.00273954
Cu       3.77981957       8.74980809      13.62573789  T       0.00025295       0.01571234      -0.01469504
Cu       6.29233340       8.74379218      13.60668751  T       0.00164142       0.00431151       0.00286204
Cu       8.77160611       8.73172770      13.62082603  T      -0.01035339       0.01351961      -0.00623185
Cu      11.26713750       8.75407964      13.60655818  T       0.00808409       0.01339993      -0.01507998
Cu       1.24292484      11.26159592      13.60018215  T      -0.01590511      -0.00044987      -0.00620784
Cu       3.74466563      11.27304353      13.57536014  T      -0.01117923      -0.00447863       0.00076390
Cu       6.25781823      11.27733723      13.57346849  T      -0.00360201      -0.00215277      -0.00888679
Cu       8.76317690      11.26300012      13.58320691  T       0.00181654      -0.00173711      -0.01063341
Cu      11.26771082      11.26545472      13.59014887  T       0.02591536       0.00466552      -0.00619909
Cu      12.51064855       0.00504986      15.40124203  T       0.00433363       0.01049620      -0.09106520
Cu       2.50252599       0.00029899      15.39318999  T       0.00539518       0.00898499      -0.08626618
Cu       4.99816714      12.50959490      15.37190577  T       0.01155959      -0.00069371      -0.04362985
Cu       7.50566415      12.49141338      15.36936948  T      -0.00761257       0.00672660      -0.05573877
Cu      10.01405249      12.49423242      15.38349231  T      -0.01307480       0.00724150      -0.06340411
Cu       0.07161621       2.50778423      15.37722132  T       0.01453211       0.01093633      -0.04506755
Cu       2.53493673       2.45484225      15.37844277  T      -0.00440213       0.00158433      -0.03784827
Cu       5.01559124       2.45449133      15.47655189  T      -0.05442459      -0.06777883      -0.08004863
Cu       7.57144380       2.50694434      15.49624564  T       0.03854149      -0.08770776      -0.12843515
Cu      10.11511010       2.45496177      15.46658947  T       0.04477418      -0.04890139      -0.08077789
Cu      12.45314805       5.00131683      15.35664248  T       0.01109452       0.00324477      -0.07871726
Cu       2.36884062       4.90732515      15.48842038  T      -0.06248594      -0.02603397      -0.08243978
Pd       4.88526819       5.05369938      15.57264104  T       0.03558307      -0.01288189      -0.10096821
Y        7.48899522       4.99841307      17.22774375  T      -0.04267347       0.00897453       0.06463102
Cu       9.95923724       5.00337370      15.45139123  T       0.11054481      -0.00406757      -0.15293965
Cu       0.03672597       7.50902823      15.35475564  T       0.00456407      -0.01027090      -0.05163479
Cu       2.52023381       7.57664147      15.47215154  T      -0.02186556       0.03031735      -0.10005655
Cu       5.07997833       7.62859175      15.44939505  T      -0.03557218       0.07797922      -0.10865859
Cu       7.59628463       7.50158922      15.49063447  T       0.04484239       0.08355574      -0.11565855
Cu      10.10855191       7.55657617      15.46492510  T       0.03840754       0.05524039      -0.08485921
Cu      12.51370700      10.00619773      15.39727422  T       0.00494271      -0.00612507      -0.09102416
Cu       2.50766308      10.05356308      15.38550089  T       0.00700319      -0.00746148      -0.07496488
Cu       5.00872405      10.07293416      15.36296941  T       0.00791581      -0.00804648      -0.04614414
Cu       7.50754518      10.02617404      15.36530271  T      -0.00458319      -0.01487563      -0.06134106
Cu      10.01743396      10.03039603      15.38140325  T      -0.01718159      -0.01357377      -0.06855134
O        6.18962316       3.38446874      16.66560325  T      -0.12572032       0.04429131       0.11408431
O        6.20412197       6.62872871      16.66081263  T      -0.13790114      -0.05029082       0.12261406
O        9.02424563       6.41258813      16.55113064  T       0.02069396       0.10574370       0.11041378
O        9.01191571       3.58174799      16.54679381  T       0.04138462      -0.10702117       0.10056089
C        3.24185431       5.61746651      17.13323671  T       0.15738707      -0.03977296       0.64251588
O        3.62928029       4.92447729      18.26979089  T      -0.28093027       0.15329165      -0.78711778
O        2.96971380       6.85001903      17.32299666  T       0.06212517      -0.37025786       0.02207462
H        3.61771641       5.59389058      18.98702232  T      -0.03739898       0.16277465       0.24200368
108
Lattice="12.51515363 0.0 0.0 0.0 12.51515363 0.0 0.0 0.0 25.30973" Properties=species:S:1:pos:R:3:move_mask:L:1:forces:R:3 energy=-445.15510107999995 stress="0.008183377306712477 -2.1749755643419762e-05 0.00035903626512336133 -2.1749755643419762e-05 0.008312574535852322 0.00012046041459750654 0.00035903626512336133 0.00012046041459750654 0.003200556145576232" free_energy=-445.15543567 pbc="T T T"
Cu       1.25151999       1.25151999      10.00000011  F       0.00458678       0.00393866      -0.06119836
Cu       3.75454997       1.25151999      10.00000011  F       0.00449937       0.01861095      -0.06668384
Cu       6.25757994       1.25151999      10.00000011  F      -0.00951337       0.02675323      -0.06428133
Cu       8.76061004       1.25151999      10.00000011  F       0.01165815       0.00426533      -0.05298897
Cu      11.26364002       1.25151999      10.00000011  F      -0.01265513      -0.00404664      -0.07433266
Cu       1.25151999       3.75454997      10.00000011  F      -0.00468854       0.00347936      -0.07021134
Cu       3.75454997       3.75454997      10.00000011  F       0.01720795      -0.02039989      -0.05522617
Cu       6.25757994       3.75454997      10.00000011  F      -0.02056655      -0.02727971      -0.07843288
Cu       8.76061004       3.75454997      10.00000011  F       0.00835205      -0.01544207      -0.06679904
Cu      11.26364002       3.75454997      10.00000011  F       0.00237926       0.00026521      -0.06007593
Cu       1.25151999       6.25757994      10.00000011  F      -0.00712240      -0.00783237      -0.06046061
Cu       3.75454997       6.25757994      10.00000011  F       0.01697049       0.01475706      -0.04640539
Cu       6.25757994       6.25757994      10.00000011  F      -0.01813141       0.02353488      -0.07916473
Cu       8.76061004       6.25757994      10.00000011  F       0.00980483       0.01887100      -0.07544884
Cu      11.26364002       6.25757994      10.00000011  F       0.00148725      -0.00615219      -0.05688909
Cu       1.25151999       8.76061004      10.00000011  F       0.00614197       0.00678075      -0.05892564
Cu       3.75454997       8.76061004      10.00000011  F      -0.00627383      -0.01250717      -0.05505370
Cu       6.25757994       8.76061004      10.00000011  F       0.00376329      -0.02432010      -0.05891522
Cu       8.76061004       8.76061004      10.00000011  F       0.00171816      -0.01094288      -0.05261751
Cu      11.26364002       8.76061004      10.00000011  F      -0.00712636       0.00219741      -0.07077494
Cu       1.25151999      11.26364002      10.00000011  F       0.00994167      -0.00628957      -0.02311984
Cu       3.75454997      11.26364002      10.00000011  F      -0.01976477      -0.00070944      -0.06711077
Cu       6.25757994      11.26364002      10.00000011  F       0.00147669       0.00137543      -0.05385877
Cu       8.76061004      11.26364002      10.00000011  F       0.01065454       0.00228162      -0.06308885
Cu      11.26364002      11.26364002      10.00000011  F      -0.00440518       0.00701187      -0.04777056
Cu       0.00000000       0.00000000      11.76991004  F      -0.02408783       0.05397757       0.13552240
Cu       2.50302998       0.00000000      11.76991004  F       0.03110014       0.04736448       0.10081025
Cu       5.00605995       0.00000000      11.76991004  F       0.05966338       0.11052775       0.10281042
Cu       7.50909005       0.00000000      11.76991004  F       0.02369445       0.08262313       0.11229153
Cu      10.01212003       0.00000000      11.76991004  F      -0.02515953       0.09036666       0.13361811
Cu       0.00000000       2.50302998      11.76991004  F      -0.05286698       0.03051805       0.12056789
Cu       2.50302998       2.50302998      11.76991004  F       0.06067404       0.02897160       0.11876066
Cu       5.00605995       2.50302998      11.76991004  F       0.01971549      -0.00052572       0.10943384
Cu       7.50909005       2.50302998      11.76991004  F      -0.01966134      -0.01004992       0.13983866
Cu      10.01212003       2.50302998      11.76991004  F       0.03569987      -0.07441763       0.07676387
Cu       0.00000000       5.00605995      11.76991004  F      -0.04944831       0.02590016       0.09730993
Cu       2.50302998       5.00605995      11.76991004  F       0.07419820       0.02622052       0.17041818
Cu       5.00605995       5.00605995      11.76991004  F      -0.03633308       0.02089350       0.23443858
Cu       7.50909005       5.00605995      11.76991004  F      -0.06521104       0.00257481       0.16113418
Cu      10.01212003       5.00605995      11.76991004  F       0.03258759      -0.00613028       0.08101506
Cu       0.00000000       7.50909005      11.76991004  F      -0.01496808      -0.05050474       0.15040595
Cu       2.50302998       7.50909005      11.76991004  F       0.05505325      -0.03204103       0.12152280
Cu       5.00605995       7.50909005      11.76991004  F      -0.01383451       0.03582068       0.11738905
Cu       7.50909005       7.50909005      11.76991004  F      -0.01715389       0.00734374       0.12176876
Cu      10.01212003       7.50909005      11.76991004  F       0.05362564       0.06511181       0.06832564
Cu       0.00000000      10.01212003      11.76991004  F       0.02602099      -0.07884585       0.16437648
Cu       2.50302998      10.01212003      11.76991004  F       0.02906807      -0.04675782       0.09906828
Cu       5.00605995      10.01212003      11.76991004  F       0.02346507      -0.08799610       0.12592006
Cu       7.50909005      10.01212003      11.76991004  F       0.03304972      -0.04941127       0.10704911
Cu      10.01212003      10.01212003      11.76991004  F      -0.02837344      -0.08328004       0.12327592
Cu       1.26580479       1.24593786      13.58434737  T      -0.00400179      -0.01267938      -0.00450679
Cu       3.78992655       1.27141709      13.60693124  T      -0.00854432      -0.01078606      -0.01987258
Cu       6.28980046       1.29151467      13.62424639  T      -0.00413188      -0.00954498      -0.00889953
Cu       8.76663597       1.27914995      13.62598922  T       0.00111713      -0.00928051      -0.01359981
Cu      11.26521805       1.26198154      13.61521917  T       0.01142817      -0.01183769      -0.02453665
Cu       1.25170096       3.76163092      13.58611196  T       0.00456304      -0.00045955      -0.00317419
Cu       3.76179850       3.76231500      13.61211695  T      -0.01256806      -0.00395543      -0.01873105
Cu       6.26749808       3.78072566      13.60442330  T      -0.00099687       0.00861233      -0.03599924
Cu       8.74355890       3.76136209      13.56681962  T      -0.00081375       0.00691259      -0.03454194
Cu      11.23041829       3.75562715      13.60583660  T      -0.00264672       0.00444309       0.00567926
Cu       1.26456429       6.24936687      13.60900664  T       0.01133839       0.00025537      -0.00401338
Cu       3.74813420       6.27869776      13.61734721  T      -0.01346841       0.00186206      -0.01818273
Cu       6.26659561       6.24293183      13.59759853  T       0.00363670      -0.00800033      -0.03657637
Cu       8.74681784       6.24614597      13.56275336  T      -0.00291664      -0.00495925      -0.03679464
Cu      11.23535227       6.24948865      13.60482750  T      -0.00473353      -0.00504977       0.00481876
Cu       1.28787414       8.74933314      13.60670700  T      -0.00603126       0.01086472      -0.00600959
Cu       3.77982194       8.74995965      13.62559616  T      -0.00070518       0.01547708      -0.01772655
Cu       6.29234917       8.74383373      13.60671510  T       0.00183310       0.00437698      -0.00132087
Cu       8.77150624       8.73185811      13.62076579  T      -0.00841957       0.01300236      -0.01032814
Cu      11.26721560       8.75420892      13.60641265  T       0.00812045       0.01246273      -0.01774309
Cu       1.24277140      11.26159154      13.60012217  T      -0.01422272      -0.00035239      -0.00891646
Cu       3.74455774      11.27300035      13.57536748  T      -0.01074212      -0.00376295      -0.00170562
Cu       6.25778344      11.27731645      13.57338269  T      -0.00401172      -0.00209668      -0.01049467
Cu       8.76319442      11.26298335      13.58310441  T       0.00236405      -0.00135848      -0.01206540
Cu      11.26796088      11.26549965      13.59008914  T       0.02374163       0.00439194      -0.00789046
Cu      12.51069035       0.00515111      15.40036327  T       0.00408314       0.01052327      -0.08744337
Cu       2.50257805       0.00038572      15.39235755  T       0.00523958       0.00868037      -0.08358911
Cu       4.99827865      12.50958827      15.37148487  T       0.01058013      -0.00240917      -0.04220588
Cu       7.50559069      12.49147821      15.36883165  T      -0.00733239       0.00427974      -0.05340066
Cu      10.01392634      12.49430226      15.38288058  T      -0.01198065       0.00503445      -0.06168517
Cu       0.07175638       2.50788973      15.37678625  T       0.01468293       0.01059248      -0.04401630
Cu       2.53489418       2.45485752      15.37807755  T      -0.00544124       0.00259801      -0.03715588
Cu       5.01506611       2.45383741      15.47577969  T      -0.04423269      -0.05755284      -0.07033241
Cu       7.57181562       2.50609807      15.49500648  T       0.03131393      -0.07314084      -0.11175427
Cu      10.11554213       2.45448995      15.46581018  T       0.03797197      -0.04077401      -0.07191464
Cu      12.45325506       5.00134812      15.35588294  T       0.01238857       0.00354978      -0.07573477
Cu       2.36823777       4.90707397      15.48762489  T      -0.03905957      -0.01245159      -0.05958131
Pd       4.88561148       5.05357511      15.57166661  T       0.03741639      -0.01784950      -0.10845053
Y        7.48858347       4.99849967      17.22836738  T      -0.02308698       0.00638767       0.05262785
Cu       9.96030379       5.00333440      15.44991567  T       0.09199047      -0.00255446      -0.13222159
Cu       0.03677002       7.50892911      15.35425755  T       0.00549571      -0.01022652      -0.04994471
Cu       2.52002280       7.57693395      15.47118622  T      -0.01856117       0.02047094      -0.08959046
Cu       5.07963516       7.62934403      15.44834672  T      -0.02750133       0.06437467      -0.09693458
Cu       7.59671740       7.50239544      15.48951831  T       0.03676021       0.06958629      -0.09986791
Cu      10.10892249       7.55710919      15.46410633  T       0.03116954       0.04521938      -0.07547543
Cu      12.51375469      10.00613866      15.39639597  T       0.00471561      -0.00621813      -0.08759258
Cu       2.50773067      10.05349112      15.38477754  T       0.00652469      -0.00672597      -0.07198181
Cu       5.00880052      10.07285657      15.36252421  T       0.00688851      -0.00545560      -0.04415509
Cu       7.50750100      10.02603049      15.36471072  T      -0.00463599      -0.01184848      -0.05836713
Cu      10.01726826      10.03026512      15.38074190  T      -0.01581060      -0.01080212      -0.06660060
O        6.18841019       3.38489613      16.66670423  T      -0.12122464       0.03675395       0.10347648
O        6.20279148       6.62824350      16.66199561  T      -0.13381760      -0.04157317       0.11112814
O        9.02444538       6.41360849      16.55219592  T       0.02213313       0.09927091       0.09625964
O        9.01231494       3.58071536      16.54776419  T       0.04040391      -0.09969913       0.08756638
C        3.24337290       5.61708279      17.13943607  T       0.08431685      -0.09998754       0.26910857
O        3.62656976       4.92595633      18.26219645  T      -0.19088488       0.20072469      -0.26904376
O        2.97031315       6.84644658      17.32320952  T       0.01184637      -0.14848840       0.06560434
H        3.61735560       5.59546111      18.98935714  T      -0.03245283      -0.04528171       0.03239960
108
Lattice="12.51515363 0.0 0.0 0.0 12.51515363 0.0 0.0 0.0 25.30973" Properties=species:S:1:pos:R:3:move_mask:L:1:forces:R:3 energy=-445.16176847 stress="0.008176073655012606 8.745977077735175e-07 0.00033549663814942123 8.745977077735175e-07 0.008260634531910404 0.00016222368160023523 0.00033549663814942123 0.00016222368160023523 0.0031174870642576287" free_energy=-445.1621163 pbc="T T T"
Cu       1.25151999       1.25151999      10.00000011  F       0.00450128       0.00377535      -0.06115033
Cu       3.75454997       1.25151999      10.00000011  F       0.00470035       0.01852227      -0.06668961
Cu       6.25757994       1.25151999      10.00000011  F      -0.00931321       0.02677959      -0.06397980
Cu       8.76061004       1.25151999      10.00000011  F       0.01157362       0.00420022      -0.05257177
Cu      11.26364002       1.25151999      10.00000011  F      -0.01274612      -0.00420987      -0.07416843
Cu       1.25151999       3.75454997      10.00000011  F      -0.00461795       0.00346000      -0.07040944
Cu       3.75454997       3.75454997      10.00000011  F       0.01738756      -0.02030949      -0.05527927
Cu       6.25757994       3.75454997      10.00000011  F      -0.02030252      -0.02724478      -0.07820768
Cu       8.76061004       3.75454997      10.00000011  F       0.00820593      -0.01548855      -0.06663680
Cu      11.26364002       3.75454997      10.00000011  F       0.00218737       0.00025105      -0.05991463
Cu       1.25151999       6.25757994      10.00000011  F      -0.00700195      -0.00778947      -0.06064812
Cu       3.75454997       6.25757994      10.00000011  F       0.01712651       0.01471429      -0.04641636
Cu       6.25757994       6.25757994      10.00000011  F      -0.01793393       0.02347198      -0.07892519
Cu       8.76061004       6.25757994      10.00000011  F       0.00968019       0.01888541      -0.07529908
Cu      11.26364002       6.25757994      10.00000011  F       0.00128069      -0.00615917      -0.05683543
Cu       1.25151999       8.76061004      10.00000011  F       0.00611958       0.00688812      -0.05889488
Cu       3.75454997       8.76061004      10.00000011  F      -0.00607204      -0.01245059      -0.05494147
Cu       6.25757994       8.76061004      10.00000011  F       0.00397628      -0.02426141      -0.05861710
Cu       8.76061004       8.76061004      10.00000011  F       0.00162379      -0.01084573      -0.05227363
Cu      11.26364002       8.76061004      10.00000011  F      -0.00728194       0.00233904      -0.07069341
Cu       1.25151999      11.26364002      10.00000011  F       0.00978063      -0.00621741      -0.02301847
Cu       3.75454997      11.26364002      10.00000011  F      -0.01957346      -0.00070913      -0.06690136
Cu       6.25757994      11.26364002      10.00000011  F       0.00158338       0.00132644      -0.05351121
Cu       8.76061004      11.26364002      10.00000011  F       0.01072132       0.00227538      -0.06261030
Cu      11.26364002      11.26364002      10.00000011  F      -0.00453323       0.00705245      -0.04743999
Cu       0.00000000       0.00000000      11.76991004  F      -0.02399411       0.05384202       0.13339067
Cu       2.50302998       0.00000000      11.76991004  F       0.03106393       0.04687425       0.09963415
Cu       5.00605995       0.00000000      11.76991004  F       0.05990559       0.11028095       0.10185964
Cu       7.50909005       0.00000000      11.76991004  F       0.02385190       0.08234547       0.11115137
Cu      10.01212003       0.00000000      11.76991004  F      -0.02546773       0.08998568       0.13232249
Cu       0.00000000       2.50302998      11.76991004  F      -0.05302611       0.03077613       0.11994764
Cu       2.50302998       2.50302998      11.76991004  F       0.06050262       0.02884728       0.11790652
Cu       5.00605995       2.50302998      11.76991004  F       0.02000639      -0.00082803       0.10848275
Cu       7.50909005       2.50302998      11.76991004  F      -0.02002680      -0.01060255       0.13828819
Cu      10.01212003       2.50302998      11.76991004  F       0.03597865      -0.07470944       0.07552736
Cu       0.00000000       5.00605995      11.76991004  F      -0.04954033       0.02591427       0.09689864
Cu       2.50302998       5.00605995      11.76991004  F       0.07418242       0.02618982       0.16898381
Cu       5.00605995       5.00605995      11.76991004  F      -0.03683170       0.02100093       0.23242111
Cu       7.50909005       5.00605995      11.76991004  F      -0.06534323       0.00247836       0.15787371
Cu      10.01212003       5.00605995      11.76991004  F       0.03315188      -0.00622346       0.07901105
Cu       0.00000000       7.50909005      11.76991004  F      -0.01513029      -0.05075150       0.15002735
Cu       2.50302998       7.50909005      11.76991004  F       0.05502386      -0.03165793       0.12037589
Cu       5.00605995       7.50909005      11.76991004  F      -0.01354671       0.03609638       0.11660710
Cu       7.50909005       7.50909005      11.76991004  F      -0.01735750       0.00803752       0.12004712
Cu      10.01212003       7.50909005      11.76991004  F       0.05371807       0.06565840       0.06730973
Cu       0.00000000      10.01212003      11.76991004  F       0.02598027      -0.07871434       0.16248754
Cu       2.50302998      10.01212003      11.76991004  F       0.02895250      -0.04647984       0.09802600
Cu       5.00605995      10.01212003      11.76991004  F       0.02395388      -0.08786457       0.12491519
Cu       7.50909005      10.01212003      11.76991004  F       0.03304595      -0.04915891       0.10580992
Cu      10.01212003      10.01212003      11.76991004  F      -0.02853769      -0.08293917       0.12226706