108
Lattice="12.51515363 0.0 0.0 0.0 12.51515363 0.0 0.0 0.0 25.30973" Properties=species:S:1:pos:R:3:move_mask:L:1:forces:R:3 energy=-444.10411068 stress="0.008096422642544154 -5.876848955203529e-06 -0.00023246279165778225 -5.876848955203529e-06 0.007966781255131894 -1.6849010058903987e-05 -0.00023246279165778225 -1.6849010058903987e-05 0.0029067863739483174" free_energy=-444.10790756 pbc="T T T"
Cu       1.25151999       1.25151999      10.00000011  F      -0.00134473      -0.01855385      -0.07541962
Cu       3.75454997       1.25151999      10.00000011  F       0.01131800       0.00216785      -0.07162286
Cu       6.25757994       1.25151999      10.00000011  F      -0.01726202       0.01260280      -0.06035929
Cu       8.76061004       1.25151999      10.00000011  F       0.01096267       0.01247126      -0.05187369
Cu      11.26364002       1.25151999      10.00000011  F      -0.00453755       0.00439949      -0.07278347
Cu       1.25151999       3.75454997      10.00000011  F      -0.00337604       0.00718293      -0.06709337
Cu       3.75454997       3.75454997      10.00000011  F       0.01655411      -0.01456040      -0.05768752
Cu       6.25757994       3.75454997      10.00000011  F      -0.01942804      -0.01524043      -0.08118978
Cu       8.76061004       3.75454997      10.00000011  F       0.01842769      -0.01688415      -0.08748137
Cu      11.26364002       3.75454997      10.00000011  F      -0.01089448      -0.00334131      -0.05501757
Cu       1.25151999       6.25757994      10.00000011  F      -0.00414758      -0.00570515      -0.06900067
Cu       3.75454997       6.25757994      10.00000011  F       0.01794538       0.01535851      -0.05817643
Cu       6.25757994       6.25757994      10.00000011  F      -0.01937314       0.01729618      -0.08390716
Cu       8.76061004       6.25757994      10.00000011  F       0.01710932       0.01761457      -0.08764127
Cu      11.26364002       6.25757994      10.00000011  F      -0.01037109       0.00488041      -0.05675963
Cu       1.25151999       8.76061004      10.00000011  F      -0.00115982       0.01518671      -0.07398856
Cu       3.75454997       8.76061004      10.00000011  F       0.01051780      -0.00437091      -0.07066986
Cu       6.25757994       8.76061004      10.00000011  F      -0.01747170      -0.01674811      -0.05798757
Cu       8.76061004       8.76061004      10.00000011  F       0.01184146      -0.01483502      -0.05084606
Cu      11.26364002       8.76061004      10.00000011  F      -0.00473049      -0.00794563      -0.07181281
Cu       1.25151999      11.26364002      10.00000011  F      -0.00875596       0.00188281      -0.01826061
Cu       3.75454997      11.26364002      10.00000011  F      -0.00547417       0.00145215      -0.07517351
Cu       6.25757994      11.26364002      10.00000011  F      -0.00666258       0.00211717      -0.07515344
Cu       8.76061004      11.26364002      10.00000011  F      -0.00166282       0.00155430      -0.06228024
Cu      11.26364002      11.26364002      10.00000011  F       0.01952111       0.00190415      -0.07471010
Cu       0.00000000       0.00000000      11.76991004  F      -0.00278185       0.04037852       0.10884681
Cu       2.50302998       0.00000000      11.76991004  F       0.04209962       0.01516859       0.12918464
Cu       5.00605995       0.00000000      11.76991004  F       0.00585465       0.07064472       0.10352433
Cu       7.50909005       0.00000000      11.76991004  F      -0.01486603       0.04854839       0.07738285
Cu      10.01212003       0.00000000      11.76991004  F      -0.03153099       0.07155773       0.09878558
Cu       0.00000000       2.50302998      11.76991004  F      -0.05873035       0.03454499       0.11300733
Cu       2.50302998       2.50302998      11.76991004  F       0.04536916       0.04495130       0.13056071
Cu       5.00605995       2.50302998      11.76991004  F      -0.05477668      -0.04563283       0.08803667
Cu       7.50909005       2.50302998      11.76991004  F      -0.02656115       0.01576568       0.15613033
Cu      10.01212003       2.50302998      11.76991004  F       0.03025433      -0.01956145       0.11690664
Cu       0.00000000       5.00605995      11.76991004  F      -0.07512041       0.00275316       0.07507769
Cu       2.50302998       5.00605995      11.76991004  F       0.05492616       0.00115810       0.14807547
Cu       5.00605995       5.00605995      11.76991004  F      -0.08154190       0.00226283       0.13591100
Cu       7.50909005       5.00605995      11.76991004  F      -0.03260080       0.00219236       0.18771679
Cu      10.01212003       5.00605995      11.76991004  F       0.01402573       0.00180648       0.14480546
Cu       0.00000000       7.50909005      11.76991004  F      -0.05842016      -0.03628229       0.11492411
Cu       2.50302998       7.50909005      11.76991004  F       0.04489404      -0.04740444       0.13111809
Cu       5.00605995       7.50909005      11.76991004  F      -0.05245390       0.04021148       0.08957310
Cu       7.50909005       7.50909005      11.76991004  F      -0.02640777      -0.01805712       0.15667969
Cu      10.01212003       7.50909005      11.76991004  F       0.03330882       0.02162652       0.11422224
Cu       0.00000000      10.01212003      11.76991004  F      -0.00317337      -0.03834291       0.10659997
Cu       2.50302998      10.01212003      11.76991004  F       0.04248922      -0.01371737       0.12842545
Cu       5.00605995      10.01212003      11.76991004  F       0.00697175      -0.07012812       0.10149008
Cu       7.50909005      10.01212003      11.76991004  F      -0.01316540      -0.04819124       0.07637885
Cu      10.01212003      10.01212003      11.76991004  F      -0.03268025      -0.07096444       0.09883019
Cu       1.25863336       1.24246002      13.58788289  T      -0.00618992      -0.01409574      -0.00691391
Cu       3.76634150       1.26180044      13.61700426  T      -0.00826589      -0.01460625      -0.01558164
Cu       6.25128107       1.26834962      13.61038071  T      -0.00138284      -0.00189269       0.00628928
Cu       8.74092271       1.26925860      13.60451872  T      -0.00405518      -0.00406450       0.00134183
Cu      11.25856863       1.25570656      13.59949702  T       0.01532031      -0.01340719      -0.01860088
Cu       1.23444332       3.75705963      13.58971582  T       0.00583709      -0.00091033      -0.00587289
Cu       3.75845157       3.74949034      13.61517968  T      -0.01047492      -0.00745698      -0.00236530
Cu       6.25084629       3.76614714      13.57814142  T      -0.00416376      -0.00557300      -0.05776951
Cu       8.74225394       3.77153278      13.58118593  T       0.00558536      -0.00144201      -0.03881700
Cu      11.24090462       3.76706625      13.61466083  T       0.01004596       0.00090591       0.00924348
Cu       1.23485519       6.25526276      13.58963913  T       0.00516211       0.00047443      -0.00523908
Cu       3.75906882       6.26208865      13.61499973  T      -0.01040626       0.00982105      -0.00337615
Cu       6.25213911       6.24508081      13.57852006  T      -0.00430812       0.00341449      -0.05572146
Cu       8.74347605       6.24258116      13.58058305  T       0.00613902      -0.00138817      -0.03914709
Cu      11.24145078       6.24714018      13.61464261  T       0.00953618      -0.00378874       0.00745847
Cu       1.25855514       8.76999891      13.58793072  T      -0.00609998       0.01029006      -0.00685018
Cu       3.76659418       8.75028191      13.61636494  T      -0.00744273       0.01440052      -0.01422782
Cu       6.25231094       8.74269673      13.61044600  T      -0.00199304       0.00402194       0.00936749
Cu       8.74183444       8.74303101      13.60544227  T      -0.00446496       0.00498688       0.00279483
Cu      11.25831232       8.75689805      13.60035603  T       0.01499458       0.01166150      -0.01801120
Cu       1.25462263      11.26384602      13.61210911  T      -0.00663379       0.00164131      -0.00781012
Cu       3.74720558      11.26366342      13.59084185  T      -0.01031981       0.00110166      -0.00945959
Cu       6.25487191      11.26319511      13.57521132  T      -0.00558761       0.00214386      -0.00767232
Cu       8.76480037      11.26372512      13.57598883  T      -0.00697221       0.00145454      -0.00792926
Cu      11.27779366      11.26379708      13.58229981  T       0.03106828       0.00119452      -0.00459549
Cu       0.00086004       0.00017847      15.40220759  T      -0.00075593       0.00636406      -0.09083028
Cu       2.51405270       0.00625658      15.40347612  T      -0.00612077       0.00510845      -0.08306468
Cu       5.01102233      12.48660531      15.38405621  T       0.01377161       0.00611089      -0.04910739
Cu       7.51005134      12.49001744      15.36059181  T       0.00097938       0.00104985      -0.05680020
Cu      10.01926393      12.48614838      15.36788886  T      -0.01394660      -0.00044580      -0.05351336
Cu       0.02384162       2.48640835      15.37238463  T       0.00753874       0.01567587      -0.05362859
Cu       2.48454872       2.50542125      15.38208990  T      -0.00293269       0.01075253      -0.04010713
Cu       4.94567746       2.42316978      15.50726575  T      -0.04180169      -0.06264108      -0.08109857
Cu       7.43429461       2.47541879      15.44691900  T      -0.04082334      -0.09790627      -0.13764816
Cu      10.07258862       2.42113957      15.40679878  T       0.05672354      -0.05535403      -0.07362088
Cu      12.51277162       5.00569388      15.41849288  T       0.02235366       0.00168281      -0.06600638
Cu       2.42937980       5.00656769      15.38265684  T      -0.00366775       0.00118781      -0.05579658
Pd       4.95177359       5.00556623      15.55136188  T       0.01284652      -0.00161834      -0.09294993
Y        7.57242474       5.00567461      17.27856923  T       0.08582722      -0.00252131       0.13273266
Cu      10.04350690       5.01107828      15.49044111  T       0.15661524       0.00550010      -0.03327678
Cu       0.02491054       7.52533910      15.37255446  T       0.00808948      -0.01451128      -0.05297090
Cu       2.48561163       7.50760112      15.38164597  T      -0.00231475      -0.01401342      -0.03997589
Cu       4.94686553       7.58745907      15.50532930  T      -0.04093853       0.06388169      -0.07886427
Cu       7.43662606       7.53494748      15.44793822  T      -0.04034688       0.10142415      -0.13657572
Cu      10.07362274       7.59282957      15.41183288  T       0.05504073       0.05308338      -0.07722114
Cu       0.00059072      10.01184557      15.40239033  T      -0.00071335      -0.00625931      -0.09125321
Cu       2.51389713      10.00681097      15.40306711  T      -0.00629990      -0.00437463      -0.08262762
Cu       5.01083536      10.03911521      15.38359811  T       0.01445988      -0.00811041      -0.04840191
Cu       7.50985560      10.03658365      15.36072140  T       0.00058620      -0.00816892      -0.05703477
Cu      10.01897120      10.04311380      15.36840721  T      -0.01380784      -0.00183382      -0.05333796
O        6.08280382       3.44046141      16.66993147  T      -0.07136867       0.00968815       0.14161368
O        6.08249682       6.57058331      16.66880974  T      -0.06902054      -0.00872170       0.14233937
O        8.83010156       6.46457846      16.28486519  T       0.05951517       0.05962554       0.03907032
O        8.82747864       3.55492613      16.27057228  T       0.05055840      -0.06333419       0.02596787
C        9.95159587       4.96410878      18.37301536  T       0.38148882      -0.04667853       0.54406717
O       10.34611130       4.86446162      19.69726093  T      -0.49342725       0.06755480      -0.62569987
O       10.91555993       4.99129420      17.55179460  T      -0.13338154      -0.01108824       0.24657604
H       11.32912719       4.83045432      19.68634332  T       0.29741778      -0.00517084       0.06321293
108
Lattice="12.51515363 0.0 0.0 0.0 12.51515363 0.0 0.0 0.0 25.30973" Properties=species:S:1:pos:R:3:move_mask:L:1:forces:R:3 energy=-444.11674592 stress="0.008143016257149967 -6.570667592654964e-06 -0.00023688598065454934 -6.570667592654964e-06 0.007981221061392735 -7.572036592284296e-06 -0.00023688598065454934 -7.572036592284296e-06 0.0027881442545138906" free_energy=-444.12056201 pbc="T T T"
Cu       1.25151999       1.25151999      10.00000011  F      -0.00109542      -0.01921261      -0.07527202
Cu       3.75454997       1.25151999      10.00000011  F       0.01136571       0.00163174      -0.07165332
Cu       6.25757994       1.25151999      10.00000011  F      -0.01730578       0.01232562      -0.06036945
Cu       8.76061004       1.25151999      10.00000011  F       0.01105805       0.01229655      -0.05164553
Cu      11.26364002       1.25151999      10.00000011  F      -0.00423856       0.00391571      -0.07266268
Cu       1.25151999       3.75454997      10.00000011  F      -0.00317355       0.00691708      -0.06734954
Cu       3.75454997       3.75454997      10.00000011  F       0.01669223      -0.01474248      -0.05794342
Cu       6.25757994       3.75454997      10.00000011  F      -0.01933189      -0.01535774      -0.08135272
Cu       8.76061004       3.75454997      10.00000011  F       0.01845419      -0.01703534      -0.08764176
Cu      11.26364002       3.75454997      10.00000011  F      -0.01070427      -0.00353517      -0.05500676
Cu       1.25151999       6.25757994      10.00000011  F      -0.00395524      -0.00534886      -0.06926833
Cu       3.75454997       6.25757994      10.00000011  F       0.01807940       0.01562125      -0.05844494
Cu       6.25757994       6.25757994      10.00000011  F      -0.01927899       0.01748028      -0.08408263
Cu       8.76061004       6.25757994      10.00000011  F       0.01714173       0.01783263      -0.08781697
Cu      11.26364002       6.25757994      10.00000011  F      -0.01017118       0.00515956      -0.05676049
Cu       1.25151999       8.76061004      10.00000011  F      -0.00090954       0.01581399      -0.07387927
Cu       3.75454997       8.76061004      10.00000011  F       0.01054075      -0.00385831      -0.07071989
Cu       6.25757994       8.76061004      10.00000011  F      -0.01752335      -0.01649693      -0.05799921
Cu       8.76061004       8.76061004      10.00000011  F       0.01195006      -0.01468367      -0.05059038
Cu      11.26364002       8.76061004      10.00000011  F      -0.00441122      -0.00749550      -0.07169272
Cu       1.25151999      11.26364002      10.00000011  F      -0.00854805       0.00181468      -0.01871728
Cu       3.75454997      11.26364002      10.00000011  F      -0.00566420       0.00139399      -0.07519536
Cu       6.25757994      11.26364002      10.00000011  F      -0.00694645       0.00206875      -0.07507187
Cu       8.76061004      11.26364002      10.00000011  F      -0.00133207       0.00149851      -0.06208099
Cu      11.26364002      11.26364002      10.00000011  F       0.02012460       0.00184584      -0.07476657
Cu       0.00000000       0.00000000      11.76991004  F      -0.00232354       0.03982394       0.10744860
Cu       2.50302998       0.00000000      11.76991004  F       0.04191238       0.01455776       0.12806637
Cu       5.00605995       0.00000000      11.76991004  F       0.00583384       0.07021952       0.10270013
Cu       7.50909005       0.00000000      11.76991004  F      -0.01480555       0.04844124       0.07690438
Cu      10.01212003       0.00000000      11.76991004  F      -0.03120055       0.07107003       0.09859816
Cu       0.00000000       2.50302998      11.76991004  F      -0.05856674       0.03413482       0.11273589
Cu       2.50302998       2.50302998      11.76991004  F       0.04534422       0.04427429       0.13004154
Cu       5.00605995       2.50302998      11.76991004  F      -0.05518521      -0.04658700       0.08701982
Cu       7.50909005       2.50302998      11.76991004  F      -0.02624550       0.01478183       0.15499361
Cu      10.01212003       2.50302998      11.76991004  F       0.03081929      -0.02004764       0.11691703
Cu       0.00000000       5.00605995      11.76991004  F      -0.07514225       0.00281632       0.07498427
Cu       2.50302998       5.00605995      11.76991004  F       0.05502268       0.00124489       0.14767541
Cu       5.00605995       5.00605995      11.76991004  F      -0.08234645       0.00234102       0.13448140
Cu       7.50909005       5.00605995      11.76991004  F      -0.03208691       0.00224410       0.18592034
Cu      10.01212003       5.00605995      11.76991004  F       0.01485956       0.00181220       0.14433253
Cu       0.00000000       7.50909005      11.76991004  F      -0.05824725      -0.03583994       0.11462166
Cu       2.50302998       7.50909005      11.76991004  F       0.04485298      -0.04666868       0.13056030
Cu       5.00605995       7.50909005      11.76991004  F      -0.05282944       0.04123238       0.08859984
Cu       7.50909005       7.50909005      11.76991004  F      -0.02612972      -0.01703320       0.15563606
Cu      10.01212003       7.50909005      11.76991004  F       0.03388427       0.02217230       0.11422780
Cu       0.00000000      10.01212003      11.76991004  F      -0.00269139      -0.03795273       0.10528711
Cu       2.50302998      10.01212003      11.76991004  F       0.04227647      -0.01326584       0.12737640
Cu       5.00605995      10.01212003      11.76991004  F       0.00694302      -0.06981912       0.10072005
Cu       7.50909005      10.01212003      11.76991004  F      -0.01311815      -0.04817984       0.07596100
Cu      10.01212003      10.01212003      11.76991004  F      -0.03233127      -0.07058874       0.09868239
Cu       1.25857366       1.24232411      13.58781607  T      -0.00543185      -0.01263113      -0.00936060
Cu       3.76626177       1.26165952      13.61685392  T      -0.00834870      -0.01442064      -0.01832348
Cu       6.25126768       1.26833135      13.61044120  T      -0.00269028      -0.00337106       0.00078928
Cu       8.74088353       1.26921930      13.60453163  T      -0.00268540      -0.00443163      -0.00243995
Cu      11.25871643       1.25557716      13.59931757  T       0.01476867      -0.01329548      -0.02114585
Cu       1.23449963       3.75705087      13.58965912  T       0.00575048      -0.00166728      -0.00860441
Cu       3.75835045       3.74941851      13.61515690  T      -0.00964570      -0.00740261      -0.00504265
Cu       6.25080612       3.76609345      13.57758410  T      -0.00358795      -0.00539708      -0.05419131
Cu       8.74230776       3.77151889      13.58081135  T       0.00596166      -0.00136351      -0.03452577
Cu      11.24100148       3.76707488      13.61474992  T       0.00989445       0.00032621       0.00584751
Cu       1.23490500       6.25526739      13.58958851  T       0.00507912       0.00130548      -0.00805621
Cu       3.75896832       6.26218339      13.61496708  T      -0.00952801       0.00970406      -0.00595163
Cu       6.25209756       6.24511385      13.57798248  T      -0.00374025       0.00339327      -0.05227416
Cu       8.74353524       6.24256777      13.58020543  T       0.00642944      -0.00126066      -0.03493399
Cu      11.24154276       6.24710363      13.61471449  T       0.00950261      -0.00292861       0.00404189
Cu       1.25849632       8.77009816      13.58786441  T      -0.00529778       0.00912528      -0.00926668
Cu       3.76652234       8.75042083      13.61622776  T      -0.00770672       0.01425472      -0.01706648
Cu       6.25229167       8.74273553      13.61053636  T      -0.00328804       0.00526776       0.00352034
Cu       8.74179138       8.74307919      13.60546910  T      -0.00301346       0.00519565      -0.00120847
Cu      11.25845699       8.75701056      13.60018240  T       0.01444757       0.01161348      -0.02068791
Cu       1.25455855      11.26386191      13.61203394  T      -0.00541433       0.00132732      -0.01105369
Cu       3.74710608      11.26367406      13.59075073  T      -0.00918680       0.00092542      -0.01142767
Cu       6.25481797      11.26321576      13.57513716  T      -0.00551692       0.00195102      -0.00975493
Cu       8.76473304      11.26373914      13.57591240  T      -0.00542222       0.00123832      -0.00999668
Cu      11.27809339      11.26380860      13.58225527  T       0.02768953       0.00096004      -0.00697777
Cu       0.00085278       0.00023979      15.40133137  T      -0.00123923       0.00630146      -0.08656263
Cu       2.51399363       0.00630576      15.40267481  T      -0.00547254       0.00483627      -0.07923479
Cu       5.01115524      12.48666426      15.38358241  T       0.01292340       0.00360392      -0.04708507
Cu       7.51006073      12.49002758      15.36004386  T       0.00126545      -0.00182562      -0.05411920
Cu      10.01912926      12.48614400      15.36737254  T      -0.01272666      -0.00242137      -0.05187107
Cu       0.02391433       2.48655966      15.37186705  T       0.00820351       0.01509837      -0.05094166
Cu       2.48452044       2.50552500      15.38170291  T      -0.00426554       0.00961065      -0.03849005
Cu       4.94527410       2.42256542      15.50648343  T      -0.03107750      -0.04981040      -0.06833068
Cu       7.43390076       2.47447415      15.44559075  T      -0.03504575      -0.07817913      -0.11817383
Cu      10.07313590       2.42060555      15.40608833  T       0.04774965      -0.04566679      -0.06545486
Cu      12.51298738       5.00571015      15.41785609  T       0.02456536       0.00149400      -0.06163069
Cu       2.42934451       5.00657920      15.38211850  T      -0.00228002       0.00110559      -0.05266743
Pd       4.95189749       5.00555058      15.55046516  T       0.02116396      -0.00123015      -0.07641857
Y        7.57325287       5.00565033      17.27984990  T       0.08453295      -0.00202165       0.11628913
Cu      10.04501798       5.01113134      15.49011993  T       0.14144855       0.00482746      -0.01553409
Cu       0.02498851       7.52519918      15.37204320  T       0.00868102      -0.01398547      -0.05041630
Cu       2.48558923       7.50746583      15.38126025  T      -0.00362034      -0.01260015      -0.03836780
Cu       4.94647055       7.58807544      15.50456849  T      -0.02963003       0.05040629      -0.06572467
Cu       7.43623671       7.53592604      15.44662035  T      -0.03385173       0.08127943      -0.11718565
Cu      10.07415389       7.59334181      15.41108776  T       0.04593970       0.04337135      -0.06861864
Cu       0.00058383      10.01178512      15.40150980  T      -0.00112766      -0.00614073      -0.08713117
Cu       2.51383631      10.00676880      15.40226985  T      -0.00570485      -0.00416728      -0.07899723
Cu       5.01097490      10.03903699      15.38313114  T       0.01348496      -0.00543486      -0.04632037
Cu       7.50986123      10.03650480      15.36017117  T       0.00091466      -0.00478985      -0.05425896
Cu      10.01883791      10.04309616      15.36789266  T      -0.01252553       0.00017813      -0.05175891
O        6.08211511       3.44055490      16.67129769  T      -0.07090241       0.00410762       0.12564792
O        6.08183089       6.57049921      16.67018305  T      -0.06866391      -0.00332414       0.12590663
O        8.83067576       6.46515378      16.28524205  T       0.05411447       0.06246596       0.02892284
O        8.82796648       3.55431502      16.27082285  T       0.04611655      -0.06532612       0.01651133
C        9.95527657       4.96365836      18.37826485  T       0.10115807      -0.02358103       0.30751252
O       10.34135054       4.86511341      19.69122405  T      -0.08829098       0.03247293      -0.31618812
O       10.91427300       4.99118719      17.55417371  T       0.01293819      -0.00879425       0.13938963
H       11.33199679       4.83040451      19.68695329  T       0.01288936       0.00468774       0.07288574
108
Lattice="12.51515363 0.0 0.0 0.0 12.51515363 0.0 0.0 0.0 25.30973" Properties=species:S:1:pos:R:3:move_mask:L:1:forces:R:3 energy=-444.12360672 stress="0.008119373139713212 -5.624036628059628e-06 -0.00025170149455722233 -5.624036628059628e-06 0.007954003987173898 -2.0866363649287876e-06 -0.00025170149455722233 -2.0866363649287876e-06 0.00264228353169089" free_energy=-444.12743139 pbc="T T T"
Cu       1.25151999       1.25151999      10.00000011  F      -0.00101268      -0.01867183      -0.07572106
Cu       3.75454997       1.25151999      10.00000011  F       0.01183746       0.00201736      -0.07197150
Cu       6.25757994       1.25151999      10.00000011  F      -0.01687945       0.01250388      -0.06049879
Cu       8.76061004       1.25151999      10.00000011  F       0.01100491       0.01253749      -0.05175527
Cu      11.26364002       1.25151999      10.00000011  F      -0.00452916       0.00438330      -0.07300641
Cu       1.25151999       3.75454997      10.00000011  F      -0.00307696       0.00725222      -0.06704675
Cu       3.75454997       3.75454997      10.00000011  F       0.01685702      -0.01443372      -0.05776501
Cu       6.25757994       3.75454997      10.00000011  F      -0.01903039      -0.01523237      -0.08138259
Cu       8.76061004       3.75454997      10.00000011  F       0.01853379      -0.01692067      -0.08790383
Cu      11.26364002       3.75454997      10.00000011  F      -0.01073836      -0.00330179      -0.05491576
Cu       1.25151999       6.25757994      10.00000011  F      -0.00384994      -0.00580007      -0.06902575
Cu       3.75454997       6.25757994      10.00000011  F       0.01826839       0.01522758      -0.05830283
Cu       6.25757994       6.25757994      10.00000011  F      -0.01899380       0.01727757      -0.08414996
Cu       8.76061004       6.25757994      10.00000011  F       0.01720508       0.01762151      -0.08812580
Cu      11.26364002       6.25757994      10.00000011  F      -0.01020468       0.00480461      -0.05672369
Cu       1.25151999       8.76061004      10.00000011  F      -0.00081505       0.01531002      -0.07439355
Cu       3.75454997       8.76061004      10.00000011  F       0.01103772      -0.00423430      -0.07109187
Cu       6.25757994       8.76061004      10.00000011  F      -0.01709419      -0.01667118      -0.05818706
Cu       8.76061004       8.76061004      10.00000011  F       0.01187002      -0.01489731      -0.05083648
Cu      11.26364002       8.76061004      10.00000011  F      -0.00471272      -0.00793392      -0.07217027
Cu       1.25151999      11.26364002      10.00000011  F      -0.00846343       0.00187379      -0.01957264
Cu       3.75454997      11.26364002      10.00000011  F      -0.00513878       0.00145086      -0.07567194
Cu       6.25757994      11.26364002      10.00000011  F      -0.00650083       0.00212349      -0.07536676
Cu       8.76061004      11.26364002      10.00000011  F      -0.00141999       0.00154896      -0.06239516
Cu      11.26364002      11.26364002      10.00000011  F       0.01972858       0.00191841      -0.07538182
Cu       0.00000000       0.00000000      11.76991004  F      -0.00220585       0.04013229       0.10570998
Cu       2.50302998       0.00000000      11.76991004  F       0.04214626       0.01474085       0.12695766
Cu       5.00605995       0.00000000      11.76991004  F       0.00652577       0.07035958       0.10186378
Cu       7.50909005       0.00000000      11.76991004  F      -0.01481387       0.04853370       0.07623255
Cu      10.01212003       0.00000000      11.76991004  F      -0.03162478       0.07111407       0.09824771
Cu       0.00000000       2.50302998      11.76991004  F      -0.05829193       0.03519035       0.11197882
Cu       2.50302998       2.50302998      11.76991004  F       0.04531227       0.04487297       0.12913710
Cu       5.00605995       2.50302998      11.76991004  F      -0.05559302      -0.04698160       0.08558512
Cu       7.50909005       2.50302998      11.76991004  F      -0.02598842       0.01398261       0.15318889
Cu      10.01212003       2.50302998      11.76991004  F       0.03134043      -0.01991866       0.11626776
Cu       0.00000000       5.00605995      11.76991004  F      -0.07496179       0.00269683       0.07413586
Cu       2.50302998       5.00605995      11.76991004  F       0.05515692       0.00116267       0.14672292
Cu       5.00605995       5.00605995      11.76991004  F      -0.08381177       0.00229796       0.13232228
Cu       7.50909005       5.00605995      11.76991004  F      -0.03156877       0.00220439       0.18296344
Cu      10.01212003       5.00605995      11.76991004  F       0.01616638       0.00167326       0.14292811
Cu       0.00000000       7.50909005      11.76991004  F      -0.05802740      -0.03697502       0.11387275
Cu       2.50302998       7.50909005      11.76991004  F       0.04486178      -0.04730846       0.12966793
Cu       5.00605995       7.50909005      11.76991004  F      -0.05307015       0.04164086       0.08728275
Cu       7.50909005       7.50909005      11.76991004  F      -0.02593042      -0.01624884       0.15404760
Cu      10.01212003       7.50909005      11.76991004  F       0.03431200       0.02203307       0.11362788
Cu       0.00000000      10.01212003      11.76991004  F      -0.00258720      -0.03814806       0.10367202
Cu       2.50302998      10.01212003      11.76991004  F       0.04251936      -0.01333397       0.12640336
Cu       5.00605995      10.01212003      11.76991004  F       0.00771965      -0.06988343       0.10002204
Cu       7.50909005      10.01212003      11.76991004  F      -0.01315456      -0.04820907       0.07540587
Cu      10.01212003      10.01212003      11.76991004  F      -0.03280503      -0.07054309       0.09845006