108
Lattice="12.51515363 0.0 0.0 0.0 12.51515363 0.0 0.0 0.0 25.30973" Properties=species:S:1:pos:R:3:move_mask:L:1:forces:R:3 energy=-445.0159198 stress="0.008619536485998886 -1.6274422970284301e-06 0.00015839758033248664 -1.6274422970284301e-06 0.008598366235753276 -8.291907288827167e-07 0.00015839758033248664 -8.291907288827167e-07 0.003115035287125818" free_energy=-445.01577635 pbc="T T T"
Cu       1.25151999       1.25151999      10.00000011  F       0.00238761      -0.00375378      -0.06910541
Cu       3.75454997       1.25151999      10.00000011  F      -0.00059931       0.01495755      -0.06791755
Cu       6.25757994       1.25151999      10.00000011  F       0.00628843       0.01316549      -0.06639966
Cu       8.76061004       1.25151999      10.00000011  F      -0.00182290      -0.00026408      -0.04277311
Cu      11.26364002       1.25151999      10.00000011  F      -0.00702333      -0.00934435      -0.07118180
Cu       1.25151999       3.75454997      10.00000011  F      -0.01120558       0.00613079      -0.06146903
Cu       3.75454997       3.75454997      10.00000011  F       0.01718881      -0.01922944      -0.04351702
Cu       6.25757994       3.75454997      10.00000011  F      -0.02017240      -0.01796983      -0.07813010
Cu       8.76061004       3.75454997      10.00000011  F       0.00855900      -0.01582969      -0.07591483
Cu      11.26364002       3.75454997      10.00000011  F       0.00894942       0.01027923      -0.05550355
Cu       1.25151999       6.25757994      10.00000011  F      -0.01171845      -0.00462138      -0.06311098
Cu       3.75454997       6.25757994      10.00000011  F       0.01856455       0.02007519      -0.04411633
Cu       6.25757994       6.25757994      10.00000011  F      -0.02028016       0.02005176      -0.08107786
Cu       8.76061004       6.25757994      10.00000011  F       0.00731774       0.01661473      -0.07652479
Cu      11.26364002       6.25757994      10.00000011  F       0.00942308      -0.00869237      -0.05690072
Cu       1.25151999       8.76061004      10.00000011  F       0.00256797       0.00055715      -0.06791702
Cu       3.75454997       8.76061004      10.00000011  F      -0.00144255      -0.01739372      -0.06695044
Cu       6.25757994       8.76061004      10.00000011  F       0.00653065      -0.01718586      -0.06439382
Cu       8.76061004       8.76061004      10.00000011  F      -0.00142097      -0.00200103      -0.04175385
Cu      11.26364002       8.76061004      10.00000011  F      -0.00700512       0.00586381      -0.06998098
Cu       1.25151999      11.26364002      10.00000011  F       0.00341910       0.00177838      -0.01491122
Cu       3.75454997      11.26364002      10.00000011  F      -0.01303583       0.00172606      -0.06452141
Cu       6.25757994      11.26364002      10.00000011  F       0.00881385       0.00205480      -0.06538387
Cu       8.76061004      11.26364002      10.00000011  F      -0.00453889       0.00162626      -0.08331526
Cu      11.26364002      11.26364002      10.00000011  F       0.00173854       0.00201458      -0.05263890
Cu       0.00000000       0.00000000      11.76991004  F      -0.00509996       0.04441117       0.16091595
Cu       2.50302998       0.00000000      11.76991004  F       0.02687931       0.04082813       0.13062983
Cu       5.00605995       0.00000000      11.76991004  F       0.04392755       0.07953007       0.12684947
Cu       7.50909005       0.00000000      11.76991004  F       0.02081498       0.07928187       0.12103818
Cu      10.01212003       0.00000000      11.76991004  F      -0.03841211       0.08698533       0.13208247
Cu       0.00000000       2.50302998      11.76991004  F      -0.06157890       0.04316641       0.12646638
Cu       2.50302998       2.50302998      11.76991004  F       0.07553901       0.01828296       0.11482928
Cu       5.00605995       2.50302998      11.76991004  F      -0.02742962      -0.02196104       0.11222420
Cu       7.50909005       2.50302998      11.76991004  F      -0.01352975      -0.02514247       0.12755614
Cu      10.01212003       2.50302998      11.76991004  F       0.07121616      -0.05191098       0.10229384
Cu       0.00000000       5.00605995      11.76991004  F      -0.08051725       0.00147730       0.08425554
Cu       2.50302998       5.00605995      11.76991004  F       0.09226448       0.00129957       0.15886023
Cu       5.00605995       5.00605995      11.76991004  F      -0.05259439       0.00181087       0.16075684
Cu       7.50909005       5.00605995      11.76991004  F      -0.03281140       0.00215278       0.13624770
Cu      10.01212003       5.00605995      11.76991004  F       0.05924964       0.00141017       0.10550114
Cu       0.00000000       7.50909005      11.76991004  F      -0.06183361      -0.04607682       0.12727347
Cu       2.50302998       7.50909005      11.76991004  F       0.07509788      -0.02010273       0.11541201
Cu       5.00605995       7.50909005      11.76991004  F      -0.02592917       0.01949834       0.11243841
Cu       7.50909005       7.50909005      11.76991004  F      -0.01382738       0.02149964       0.12829583
Cu      10.01212003       7.50909005      11.76991004  F       0.07272045       0.04957749       0.10280486
Cu       0.00000000      10.01212003      11.76991004  F      -0.00424822      -0.04322485       0.15845634
Cu       2.50302998      10.01212003      11.76991004  F       0.02801210      -0.04049830       0.13005764
Cu       5.00605995      10.01212003      11.76991004  F       0.04280616      -0.07814347       0.12557561
Cu       7.50909005      10.01212003      11.76991004  F       0.02200043      -0.07732286       0.11866842
Cu      10.01212003      10.01212003      11.76991004  F      -0.03953801      -0.08626782       0.13136467
Cu       1.26528378       1.24957576      13.59128148  T       0.00161737      -0.01126026      -0.00476212
Cu       3.78188044       1.26484450      13.61541506  T      -0.01057094      -0.00725834      -0.01276866
Cu       6.28599735       1.27575509      13.61981465  T      -0.00035693      -0.00308817      -0.00470549
Cu       8.76414933       1.28029821      13.62490647  T      -0.00442079      -0.00738172      -0.00375616
Cu      11.25990362       1.26255385      13.61294990  T       0.00630010      -0.01027283      -0.01793540
Cu       1.25580756       3.76511464      13.58847336  T       0.00535613      -0.00350407       0.00513471
Cu       3.75584754       3.75830802      13.62044563  T      -0.01944195      -0.00582813      -0.01089848
Cu       6.27151369       3.76281297      13.58053952  T       0.00188507      -0.00101533      -0.04902305
Cu       8.75108551       3.76438588      13.56674420  T      -0.00616466      -0.00114704      -0.04741420
Cu      11.24237940       3.76434608      13.61931479  T       0.00030635       0.00077899       0.00328116
Cu       1.25567402       6.24721364      13.58816737  T       0.00534940       0.00219136       0.00630696
Cu       3.75622725       6.25404279      13.61997993  T      -0.01747377       0.00514009      -0.00972093
Cu       6.27185085       6.24948364      13.58049093  T       0.00183259      -0.00032384      -0.04616807
Cu       8.75137937       6.24763040      13.56671180  T      -0.00603007      -0.00013169      -0.04707077
Cu      11.24263859       6.24775242      13.61942944  T      -0.00015852      -0.00309967       0.00049158
Cu       1.26558190       8.76216205      13.59164771  T       0.00152141       0.00955867      -0.00562394
Cu       3.78191761       8.74711132      13.61560489  T      -0.00969273       0.00822866      -0.01081885
Cu       6.28622288       8.73662313      13.61958231  T      -0.00107178       0.00615354      -0.00443232
Cu       8.76442254       8.73172707      13.62485053  T      -0.00456367       0.01145575      -0.00357236
Cu      11.26022013       8.74944202      13.61303494  T       0.00615452       0.01079808      -0.01537218
Cu       1.24868056      11.26348946      13.61027390  T      -0.01451620       0.00182337      -0.01502197
Cu       3.74356967      11.26358695      13.58477207  T      -0.01521888       0.00161479      -0.00304822
Cu       6.25349888      11.26374465      13.57684506  T      -0.00383832       0.00199876      -0.00102729
Cu       8.76231974      11.26356968      13.58134791  T       0.00617239       0.00146674      -0.00905286
Cu      11.26888149      11.26354616      13.59043284  T       0.02505652       0.00155426      -0.00694965
Cu      12.51070249       0.00245810      15.40196664  T      -0.00305792       0.01388123      -0.08931600
Cu       2.50524391      12.51506953      15.40025267  T       0.00781494       0.01502514      -0.08957604
Cu       5.00236510      12.48395636      15.37579815  T       0.01606785       0.00372322      -0.04681286
Cu       7.50680241      12.49550434      15.36963144  T      -0.00915501       0.00475635      -0.05794855
Cu      10.01337730      12.49609893      15.38131998  T      -0.00744954       0.01172335      -0.06260955
Cu       0.05411365       2.49666489      15.37291158  T       0.00866901       0.00592888      -0.05280405
Cu       2.52223836       2.49224967      15.38811235  T      -0.00755695       0.00266568      -0.04966976
Cu       5.00598999       2.42110315      15.47469137  T      -0.05074478      -0.08103587      -0.09346676
Cu       7.56668979       2.50628955      15.48722804  T       0.04490241      -0.08862930      -0.13140021
Cu      10.10003310       2.45888602      15.46857654  T       0.04880040      -0.05757951      -0.07842858
Cu      12.47337442       5.00585608      15.37846099  T       0.01181522       0.00126383      -0.06576680
Cu       2.40710720       5.00625944      15.50363431  T      -0.02089139       0.00102175      -0.07750574
Pd       5.00953603       5.00591690      15.49954603  T       0.01463755       0.00413731      -0.08941027
Y        7.47599836       5.00611514      17.25305955  T      -0.03763929       0.00103464       0.07887651
Cu       9.96932321       5.00583630      15.46790709  T       0.11697410       0.00069830      -0.14727343
Cu       0.05456194       7.51543523      15.37338234  T       0.00524386      -0.00667966      -0.05343545
Cu       2.52303920       7.51886814      15.38906450  T      -0.00692928      -0.00163465      -0.04764888
Cu       5.00696292       7.59156792      15.47437955  T      -0.04979865       0.07790890      -0.09210547
Cu       7.56737387       7.50590657      15.48716324  T       0.04492150       0.08720939      -0.13102074
Cu      10.10047326       7.55293176      15.46865095  T       0.04823884       0.05715208      -0.07841900
Cu      12.51076557      10.00969972      15.40214558  T      -0.00326105      -0.01299183      -0.08935013
Cu       2.50530661      10.01137612      15.40031392  T       0.00846339      -0.01520588      -0.09014370
Cu       5.00243656      10.04372667      15.37579157  T       0.01689394      -0.00787265      -0.04549905
Cu       7.50684771      10.03177945      15.36955804  T      -0.00834169      -0.01071741      -0.05865440
Cu      10.01340521      10.03082918      15.38135845  T      -0.00813038      -0.01413946      -0.06297127
O        6.18530355       3.39363584      16.63506327  T      -0.13597376       0.05617910       0.14375005
O        6.18598926       6.61901983      16.63501062  T      -0.13614867      -0.05966014       0.14349047
O        8.99382167       6.41506751      16.54380600  T       0.03978881       0.10448016       0.10358384
O        8.99319641       3.59657632      16.54372729  T       0.04018792      -0.10302025       0.10369940
C        2.60597863       5.02011297      17.44095064  T      -0.65397800       0.01127501       0.31456497
O        1.41204486       5.04116421      18.17695860  T       0.53949094      -0.01290687      -0.64750911
O        3.67645253       5.00968083      18.03665259  T      -0.02048042       0.00070541       0.07152983
H        1.68737787       5.04259456      19.11936968  T       0.02393190       0.00168079       0.27773438
108
Lattice="12.51515363 0.0 0.0 0.0 12.51515363 0.0 0.0 0.0 25.30973" Properties=species:S:1:pos:R:3:move_mask:L:1:forces:R:3 energy=-445.02908955 stress="0.008647729058162025 -5.789249374621758e-07 0.00024199511150425099 -5.789249374621758e-07 0.008642517510389077 -1.7747169463627717e-06 0.00024199511150425099 -1.7747169463627717e-06 0.003212173285508474" free_energy=-445.02896746 pbc="T T T"
Cu       1.25151999       1.25151999      10.00000011  F       0.00230453      -0.00333892      -0.06939501
Cu       3.75454997       1.25151999      10.00000011  F      -0.00070526       0.01566799      -0.06757034
Cu       6.25757994       1.25151999      10.00000011  F       0.00626406       0.01371075      -0.06627554
Cu       8.76061004       1.25151999      10.00000011  F      -0.00176676       0.00001789      -0.04300395
Cu      11.26364002       1.25151999      10.00000011  F      -0.00714758      -0.00903011      -0.07289249
Cu       1.25151999       3.75454997      10.00000011  F      -0.01092517       0.00623482      -0.06129605
Cu       3.75454997       3.75454997      10.00000011  F       0.01716192      -0.01889032      -0.04321493
Cu       6.25757994       3.75454997      10.00000011  F      -0.02036116      -0.01773568      -0.07790395
Cu       8.76061004       3.75454997      10.00000011  F       0.00830632      -0.01574738      -0.07610073
Cu      11.26364002       3.75454997      10.00000011  F       0.00886848       0.01018679      -0.05542249
Cu       1.25151999       6.25757994      10.00000011  F      -0.01143750      -0.00477551      -0.06297201
Cu       3.75454997       6.25757994      10.00000011  F       0.01853685       0.01969216      -0.04384429
Cu       6.25757994       6.25757994      10.00000011  F      -0.02047133       0.01977116      -0.08087283
Cu       8.76061004       6.25757994      10.00000011  F       0.00705738       0.01648680      -0.07673840
Cu      11.26364002       6.25757994      10.00000011  F       0.00934151      -0.00864450      -0.05685328
Cu       1.25151999       8.76061004      10.00000011  F       0.00248577       0.00017316      -0.06823828
Cu       3.75454997       8.76061004      10.00000011  F      -0.00154446      -0.01807138      -0.06666941
Cu       6.25757994       8.76061004      10.00000011  F       0.00650797      -0.01769713      -0.06431818
Cu       8.76061004       8.76061004      10.00000011  F      -0.00136708      -0.00225438      -0.04202710
Cu      11.26364002       8.76061004      10.00000011  F      -0.00713175       0.00558033      -0.07174890
Cu       1.25151999      11.26364002      10.00000011  F       0.00315633       0.00182363      -0.01426004
Cu       3.75454997      11.26364002      10.00000011  F      -0.01317681       0.00176319      -0.06226767
Cu       6.25757994      11.26364002      10.00000011  F       0.00904960       0.00210632      -0.06426605
Cu       8.76061004      11.26364002      10.00000011  F      -0.00454051       0.00166158      -0.08311185
Cu      11.26364002      11.26364002      10.00000011  F       0.00143404       0.00205728      -0.05235393
Cu       0.00000000       0.00000000      11.76991004  F      -0.00495685       0.04492743       0.15962629
Cu       2.50302998       0.00000000      11.76991004  F       0.02698704       0.04109885       0.12998638
Cu       5.00605995       0.00000000      11.76991004  F       0.04383259       0.07978847       0.12672277
Cu       7.50909005       0.00000000      11.76991004  F       0.02063623       0.07952196       0.12055512
Cu      10.01212003       0.00000000      11.76991004  F      -0.03867915       0.08705326       0.13131992
Cu       0.00000000       2.50302998      11.76991004  F      -0.06138243       0.04349315       0.12604108
Cu       2.50302998       2.50302998      11.76991004  F       0.07565743       0.01855938       0.11411269
Cu       5.00605995       2.50302998      11.76991004  F      -0.02792915      -0.02179399       0.11152098
Cu       7.50909005       2.50302998      11.76991004  F      -0.01403811      -0.02561258       0.12590444
Cu      10.01212003       2.50302998      11.76991004  F       0.07139616      -0.05206308       0.10127160
Cu       0.00000000       5.00605995      11.76991004  F      -0.07994642       0.00142390       0.08433119
Cu       2.50302998       5.00605995      11.76991004  F       0.09229818       0.00129027       0.15823882
Cu       5.00605995       5.00605995      11.76991004  F      -0.05336780       0.00179340       0.15952611
Cu       7.50909005       5.00605995      11.76991004  F      -0.03351756       0.00214396       0.13372253
Cu      10.01212003       5.00605995      11.76991004  F       0.05965499       0.00134757       0.10393030
Cu       0.00000000       7.50909005      11.76991004  F      -0.06164164      -0.04640478       0.12687417
Cu       2.50302998       7.50909005      11.76991004  F       0.07525091      -0.02040983       0.11476143
Cu       5.00605995       7.50909005      11.76991004  F      -0.02640513       0.01932999       0.11179260
Cu       7.50909005       7.50909005      11.76991004  F      -0.01436111       0.02195473       0.12674002
Cu      10.01212003       7.50909005      11.76991004  F       0.07287644       0.04976248       0.10182871
Cu       0.00000000      10.01212003      11.76991004  F      -0.00411896      -0.04366493       0.15725109
Cu       2.50302998      10.01212003      11.76991004  F       0.02813645      -0.04069169       0.12947285
Cu       5.00605995      10.01212003      11.76991004  F       0.04269996      -0.07830786       0.12549075
Cu       7.50909005      10.01212003      11.76991004  F       0.02181373      -0.07744436       0.11819623
Cu      10.01212003      10.01212003      11.76991004  F      -0.03978540      -0.08624422       0.13063855
Cu       1.26529943       1.24946713      13.59123541  T       0.00193020      -0.00987899      -0.00781766
Cu       3.78177844       1.26477454      13.61529181  T      -0.00997142      -0.00717259      -0.01598971
Cu       6.28599397       1.27572530      13.61976935  T      -0.00114390      -0.00271668      -0.00766577
Cu       8.76410665       1.28022700      13.62487027  T      -0.00377889      -0.00756367      -0.00832238
Cu      11.25996444       1.26245473      13.61277678  T       0.00622329      -0.00958003      -0.02121548
Cu       1.25585925       3.76508084      13.58852297  T       0.00544766      -0.00419482       0.00061316
Cu       3.75565994       3.75825183      13.62034034  T      -0.01765046      -0.00476698      -0.01232816
Cu       6.27153196       3.76280309      13.58006648  T       0.00087693      -0.00118368      -0.04539145
Cu       8.75102606       3.76437474      13.56628685  T      -0.00645990      -0.00078706      -0.04433623
Cu      11.24238240       3.76435359      13.61934642  T       0.00070124      -0.00032797      -0.00111406
Cu       1.25572559       6.24723479      13.58822836  T       0.00550255       0.00291904       0.00170159
Cu       3.75605867       6.25409247      13.61988628  T      -0.01588324       0.00421645      -0.01136385
Cu       6.27186849       6.24948051      13.58004548  T       0.00098024      -0.00010591      -0.04280242
Cu       8.75132130       6.24762915      13.56625775  T      -0.00632531      -0.00034933      -0.04405252
Cu      11.24263709       6.24772251      13.61943400  T       0.00026353      -0.00190637      -0.00376928
Cu       1.26559666       8.76225428      13.59159355  T       0.00185474       0.00835658      -0.00856737
Cu       3.78182412       8.74719080      13.61550036  T      -0.00915201       0.00805180      -0.01414648
Cu       6.28621261       8.73668257      13.61953954  T      -0.00183009       0.00555262      -0.00746517
Cu       8.76437848       8.73183758      13.62481611  T      -0.00391469       0.01131503      -0.00825481
Cu      11.26027945       8.74954627      13.61288662  T       0.00606947       0.01009857      -0.01890866
Cu       1.24854051      11.26350711      13.61012887  T      -0.01274662       0.00166804      -0.01694919
Cu       3.74342275      11.26360260      13.58474271  T      -0.01345999       0.00152196      -0.00485303
Cu       6.25346183      11.26376392      13.57683494  T      -0.00423507       0.00190839      -0.00341102
Cu       8.76237931      11.26358383      13.58126060  T       0.00563177       0.00149101      -0.01074893
Cu      11.26912328      11.26356117      13.59036577  T       0.02231671       0.00149115      -0.00923935
Cu      12.51067295       0.00259201      15.40110485  T      -0.00277246       0.01348023      -0.08514191
Cu       2.50531925      12.51521445      15.39938834  T       0.00770994       0.01406907      -0.08612217
Cu       5.00252016      12.48399227      15.37534663  T       0.01519890       0.00137302      -0.04538323
Cu       7.50671405      12.49555027      15.36907235  T      -0.00906589       0.00243723      -0.05565414
Cu      10.01330546      12.49621207      15.38071583  T      -0.00743217       0.00888443      -0.06035160
Cu       0.05419725       2.49672209      15.37240209  T       0.00910021       0.00569316      -0.05150496
Cu       2.52216539       2.49227545      15.38763324  T      -0.00831198       0.00315203      -0.04818587
Cu       5.00550040       2.42032133      15.47378958  T      -0.03711590      -0.06493755      -0.07955666
Cu       7.56712307       2.50543439      15.48596002  T       0.03359438      -0.07153275      -0.11223817
Cu      10.10050404       2.45833048      15.46781978  T       0.04054185      -0.04789924      -0.06871316
Cu      12.47348843       5.00586822      15.37782648  T       0.01450729       0.00108400      -0.06661041
Cu       2.40690559       5.00626933      15.50288666  T      -0.01331195       0.00110059      -0.05564101
Pd       5.00967721       5.00595683      15.49868347  T       0.01320404       0.00319086      -0.07041253
Y        7.47563517       5.00612515      17.25382062  T      -0.03328800       0.00064200       0.06836818
Cu       9.97045182       5.00584306      15.46648621  T       0.09937433       0.00075479      -0.12855973
Cu       0.05461250       7.51537078      15.37286678  T       0.00584651      -0.00631914      -0.05224799
Cu       2.52297225       7.51885237      15.38860488  T      -0.00784855      -0.00221683      -0.04635923
Cu       5.00648246       7.59231970      15.47349093  T      -0.03677488       0.06263188      -0.07839897
Cu       7.56780727       7.50674809      15.48589902  T       0.03361117       0.07028642      -0.11191575
Cu      10.10093869       7.55348318      15.46789444  T       0.04034231       0.04738823      -0.06898673
Cu      12.51073415      10.00957432      15.40128353  T      -0.00286000      -0.01249807      -0.08529911
Cu       2.50538833      10.01122945      15.39944402  T       0.00841122      -0.01408990      -0.08669389
Cu       5.00259964      10.04365070      15.37535270  T       0.01605569      -0.00527952      -0.04421920
Cu       7.50676711      10.03167608      15.36899211  T      -0.00827392      -0.00796096      -0.05621154
Cu      10.01332674      10.03069276      15.38075076  T      -0.00806150      -0.01105616      -0.06061740
O        6.18399159       3.39417787      16.63645024  T      -0.13133496       0.04358009       0.12222476
O        6.18467567       6.61844414      16.63639507  T      -0.13185291      -0.04719080       0.12235681
O        8.99420551       6.41607548      16.54480548  T       0.04046119       0.10020497       0.09221443
O        8.99358426       3.59558236      16.54472778  T       0.04119103      -0.09921387       0.09243130
C        2.59966861       5.02022185      17.44398578  T      -0.23342595       0.00549310       0.22143765
O        1.41725004       5.04103968      18.17071114  T       0.37613119      -0.00855063      -0.20339288
O        3.67625492       5.00968772      18.03734279  T      -0.19614844       0.00248763      -0.02364433
H        1.68760877       5.04261083      19.12204948  T      -0.04965829       0.00115514      -0.00681124
108
Lattice="12.51515363 0.0 0.0 0.0 12.51515363 0.0 0.0 0.0 25.30973" Properties=species:S:1:pos:R:3:move_mask:L:1:forces:R:3 energy=-445.03614953 stress="0.008550626436653094 1.0701067396326846e-06 0.00026359333578911256 1.0701067396326846e-06 0.00864773908826719 -1.5466958934668786e-06 0.00026359333578911256 -1.5466958934668786e-06 0.0031806646744448617" free_energy=-445.03603997 pbc="T T T"
Cu       1.25151999       1.25151999      10.00000011  F       0.00244160      -0.00330364      -0.06946005
Cu       3.75454997       1.25151999      10.00000011  F      -0.00032639       0.01555984      -0.06788355
Cu       6.25757994       1.25151999      10.00000011  F       0.00627207       0.01357263      -0.06636332
Cu       8.76061004       1.25151999      10.00000011  F      -0.00205399      -0.00003455      -0.04288292
Cu      11.26364002       1.25151999      10.00000011  F      -0.00715373      -0.00892016      -0.07287072
Cu       1.25151999       3.75454997      10.00000011  F      -0.01083544       0.00612015      -0.06155389
Cu       3.75454997       3.75454997      10.00000011  F       0.01744398      -0.01893635      -0.04362257
Cu       6.25757994       3.75454997      10.00000011  F      -0.02034359      -0.01781925      -0.07819798
Cu       8.76061004       3.75454997      10.00000011  F       0.00824813      -0.01579846      -0.07612061
Cu      11.26364002       3.75454997      10.00000011  F       0.00880349       0.01015215      -0.05520184
Cu       1.25151999       6.25757994      10.00000011  F      -0.01135238      -0.00456836      -0.06316987
Cu       3.75454997       6.25757994      10.00000011  F       0.01881761       0.01982237      -0.04418822
Cu       6.25757994       6.25757994      10.00000011  F      -0.02044944       0.01994167      -0.08110078
Cu       8.76061004       6.25757994      10.00000011  F       0.00699931       0.01663180      -0.07670061
Cu      11.26364002       6.25757994      10.00000011  F       0.00927952      -0.00851491      -0.05656569
Cu       1.25151999       8.76061004      10.00000011  F       0.00261545       0.00011036      -0.06819330
Cu       3.75454997       8.76061004      10.00000011  F      -0.00116596      -0.01799264      -0.06686008
Cu       6.25757994       8.76061004      10.00000011  F       0.00652094      -0.01758562      -0.06430886
Cu       8.76061004       8.76061004      10.00000011  F      -0.00165118      -0.00223178      -0.04180503
Cu      11.26364002       8.76061004      10.00000011  F      -0.00713474       0.00544151      -0.07160767
Cu       1.25151999      11.26364002      10.00000011  F       0.00331878       0.00176377      -0.01453707
Cu       3.75454997      11.26364002      10.00000011  F      -0.01269204       0.00170980      -0.06234628
Cu       6.25757994      11.26364002      10.00000011  F       0.00907574       0.00204530      -0.06430610
Cu       8.76061004      11.26364002      10.00000011  F      -0.00489883       0.00159980      -0.08300440
Cu      11.26364002      11.26364002      10.00000011  F       0.00137357       0.00199688      -0.05224796
Cu       0.00000000       0.00000000      11.76991004  F      -0.00485576       0.04517537       0.15814751
Cu       2.50302998       0.00000000      11.76991004  F       0.02711911       0.04090216       0.12887526
Cu       5.00605995       0.00000000      11.76991004  F       0.04407837       0.07943186       0.12587602
Cu       7.50909005       0.00000000      11.76991004  F       0.02049318       0.07923829       0.11959226
Cu      10.01212003       0.00000000      11.76991004  F      -0.03882389       0.08680125       0.13059792
Cu       0.00000000       2.50302998      11.76991004  F      -0.06144408       0.04371636       0.12590470
Cu       2.50302998       2.50302998      11.76991004  F       0.07537152       0.01841590       0.11336080
Cu       5.00605995       2.50302998      11.76991004  F      -0.02821430      -0.02251511       0.11009163
Cu       7.50909005       2.50302998      11.76991004  F      -0.01393566      -0.02684781       0.12363305
Cu      10.01212003       2.50302998      11.76991004  F       0.07188676      -0.05232213       0.10041733
Cu       0.00000000       5.00605995      11.76991004  F      -0.07984967       0.00146719       0.08498794
Cu       2.50302998       5.00605995      11.76991004  F       0.09159253       0.00137876       0.15782316
Cu       5.00605995       5.00605995      11.76991004  F      -0.05414766       0.00188069       0.15768718
Cu       7.50909005       5.00605995      11.76991004  F      -0.03339031       0.00225500       0.13045434
Cu      10.01212003       5.00605995      11.76991004  F       0.06068184       0.00138819       0.10248689
Cu       0.00000000       7.50909005      11.76991004  F      -0.06173650      -0.04657808       0.12680034
Cu       2.50302998       7.50909005      11.76991004  F       0.07500572      -0.02025999       0.11412288
Cu       5.00605995       7.50909005      11.76991004  F      -0.02664986       0.02009382       0.11048742
Cu       7.50909005       7.50909005      11.76991004  F      -0.01427290       0.02322385       0.12465832
Cu      10.01212003       7.50909005      11.76991004  F       0.07334415       0.05012518       0.10108368
Cu       0.00000000      10.01212003      11.76991004  F      -0.00403907      -0.04401991       0.15586157
Cu       2.50302998      10.01212003      11.76991004  F       0.02827544      -0.04058789       0.12844932
Cu       5.00605995      10.01212003      11.76991004  F       0.04292378      -0.07801233       0.12471755
Cu       7.50909005      10.01212003      11.76991004  F       0.02167588      -0.07722491       0.11728368
Cu      10.01212003      10.01212003      11.76991004  F      -0.03989724      -0.08609298       0.12998197