108
Lattice="12.51515363 0.0 0.0 0.0 12.51515363 0.0 0.0 0.0 25.30973" Properties=species:S:1:pos:R:3:move_mask:L:1:forces:R:3 energy=-443.99364199999997 stress="0.007984496674038598 -3.851464888383422e-05 -4.935130058290263e-05 -3.851464888383422e-05 0.008060911220606422 0.000294549660676212 -4.935130058290263e-05 0.000294549660676212 0.002798725066753889" free_energy=-443.99730017 pbc="T T T"
Cu       1.25151999       1.25151999      10.00000011  F       0.00160239      -0.02012045      -0.08019018
Cu       3.75454997       1.25151999      10.00000011  F       0.00685135       0.00181197      -0.07154866
Cu       6.25757994       1.25151999      10.00000011  F      -0.01574525       0.01437271      -0.05216690
Cu       8.76061004       1.25151999      10.00000011  F       0.01459618       0.00800615      -0.04494602
Cu      11.26364002       1.25151999      10.00000011  F      -0.00801465      -0.00022223      -0.07178879
Cu       1.25151999       3.75454997      10.00000011  F      -0.00041634       0.00500672      -0.06470315
Cu       3.75454997       3.75454997      10.00000011  F       0.01316059      -0.01385688      -0.05705646
Cu       6.25757994       3.75454997      10.00000011  F      -0.01772569      -0.01335115      -0.08417698
Cu       8.76061004       3.75454997      10.00000011  F       0.01878521      -0.01186644      -0.08748334
Cu      11.26364002       3.75454997      10.00000011  F      -0.01280485       0.00144189      -0.05907427
Cu       1.25151999       6.25757994      10.00000011  F      -0.00455183      -0.00017072      -0.07556277
Cu       3.75454997       6.25757994      10.00000011  F       0.01335504       0.02089317      -0.06243451
Cu       6.25757994       6.25757994      10.00000011  F      -0.01722816       0.01868240      -0.08543893
Cu       8.76061004       6.25757994      10.00000011  F       0.01893036       0.01820867      -0.08367979
Cu      11.26364002       6.25757994      10.00000011  F      -0.00874271       0.00590544      -0.06641950
Cu       1.25151999       8.76061004      10.00000011  F      -0.00180757       0.00796047      -0.07776219
Cu       3.75454997       8.76061004      10.00000011  F       0.00271996      -0.01264695      -0.06864683
Cu       6.25757994       8.76061004      10.00000011  F      -0.00945213      -0.01980665      -0.05700863
Cu       8.76061004       8.76061004      10.00000011  F       0.01211153      -0.01479188      -0.05210830
Cu      11.26364002       8.76061004      10.00000011  F      -0.00582317      -0.01254047      -0.07207242
Cu       1.25151999      11.26364002      10.00000011  F      -0.00350859       0.00732223      -0.01798239
Cu       3.75454997      11.26364002      10.00000011  F      -0.00975296       0.00407570      -0.07097330
Cu       6.25757994      11.26364002      10.00000011  F       0.00011734       0.00373066      -0.06951845
Cu       8.76061004      11.26364002      10.00000011  F      -0.00323728      -0.00021839      -0.06900677
Cu      11.26364002      11.26364002      10.00000011  F       0.01479432       0.00278775      -0.06759623
Cu       0.00000000       0.00000000      11.76991004  F      -0.01601664       0.02789765       0.11330836
Cu       2.50302998       0.00000000      11.76991004  F       0.03364809       0.00277042       0.09717788
Cu       5.00605995       0.00000000      11.76991004  F       0.05525238       0.06209481       0.11731267
Cu       7.50909005       0.00000000      11.76991004  F       0.01489281       0.06057290       0.09713959
Cu      10.01212003       0.00000000      11.76991004  F      -0.04783421       0.06653375       0.13483640
Cu       0.00000000       2.50302998      11.76991004  F      -0.07901073       0.01577519       0.07980218
Cu       2.50302998       2.50302998      11.76991004  F       0.06201767       0.02057108       0.07406323
Cu       5.00605995       2.50302998      11.76991004  F       0.00615629      -0.02907615       0.12482854
Cu       7.50909005       2.50302998      11.76991004  F      -0.01827395      -0.01242839       0.18218716
Cu      10.01212003       2.50302998      11.76991004  F       0.00388316      -0.02812910       0.12206077
Cu       0.00000000       5.00605995      11.76991004  F      -0.07006670       0.03516465       0.05466175
Cu       2.50302998       5.00605995      11.76991004  F       0.04863970       0.01308012       0.07096210
Cu       5.00605995       5.00605995      11.76991004  F      -0.00221988       0.00055074       0.15611389
Cu       7.50909005       5.00605995      11.76991004  F      -0.05183390      -0.01343146       0.18642184
Cu      10.01212003       5.00605995      11.76991004  F      -0.01696844       0.00277548       0.12043664
Cu       0.00000000       7.50909005      11.76991004  F      -0.05093778       0.00576656       0.10523655
Cu       2.50302998       7.50909005      11.76991004  F       0.04138149       0.04372242       0.06195532
Cu       5.00605995       7.50909005      11.76991004  F       0.00532486       0.07394130       0.09355826
Cu       7.50909005       7.50909005      11.76991004  F      -0.04150805       0.05504289       0.12598425
Cu      10.01212003       7.50909005      11.76991004  F       0.05822494       0.09575485       0.06131320
Cu       0.00000000      10.01212003      11.76991004  F      -0.01384394      -0.04005751       0.13655221
Cu       2.50302998      10.01212003      11.76991004  F       0.04249153      -0.03720899       0.14068449
Cu       5.00605995      10.01212003      11.76991004  F       0.07029556      -0.06311345       0.14967350
Cu       7.50909005      10.01212003      11.76991004  F       0.01968949      -0.05516869       0.14274744
Cu      10.01212003      10.01212003      11.76991004  F      -0.05552578      -0.05893587       0.15633982
Cu       1.26028085       1.23652509      13.58370476  T      -0.00543960      -0.02059670      -0.00804155
Cu       3.76999079       1.25947250      13.59869065  T      -0.00656444      -0.01042421      -0.01639588
Cu       6.28390682       1.26743614      13.62418058  T       0.00373465      -0.00433990       0.00282645
Cu       8.75140227       1.27044403      13.62372172  T      -0.00265839      -0.01058747       0.00852737
Cu      11.26401072       1.26485389      13.60066708  T       0.01312218      -0.01542226      -0.01731108
Cu       1.23840687       3.74807400      13.56910155  T       0.00280952       0.00227981      -0.00923146
Cu       3.75320096       3.76650207      13.59827861  T      -0.01712392       0.00204908      -0.00801008
Cu       6.26815074       3.76302047      13.59311264  T       0.00012414      -0.00593340      -0.03420018
Cu       8.73070846       3.76690756      13.58666397  T      -0.00751383      -0.00904269      -0.03356685
Cu      11.23442152       3.78011743      13.59633861  T      -0.00314920      -0.00235494       0.00674041
Cu       1.24429162       6.26160307      13.57575067  T      -0.00189949       0.00158557      -0.00777590
Cu       3.75369318       6.28881789      13.58590923  T      -0.01877627       0.02141470      -0.00906592
Cu       6.26858552       6.25420999      13.58692947  T      -0.00167033       0.01031275      -0.05664529
Cu       8.74096288       6.26430396      13.55874987  T       0.00418929       0.00154224      -0.04870551
Cu      11.24045257       6.27940212      13.60304519  T      -0.00585713       0.00435958       0.00964534
Cu       1.26580592       8.76590896      13.59372285  T      -0.00342536       0.01169490      -0.00685415
Cu       3.78818795       8.76401780      13.62145118  T      -0.00962681       0.01383549      -0.01735693
Cu       6.28455023       8.73518476      13.62735037  T      -0.00721389       0.00197028      -0.00058950
Cu       8.76085985       8.73753673      13.62766624  T       0.00023450       0.00284639       0.00140000
Cu      11.25975131       8.76252549      13.61566917  T       0.01540003       0.00842259      -0.01387242
Cu       1.25156029      11.25809531      13.61216099  T      -0.00937953       0.00085394      -0.00681119
Cu       3.74628884      11.26733637      13.58772166  T      -0.01491870       0.00194709      -0.00977367
Cu       6.26269714      11.26901778      13.58846754  T      -0.00356610      -0.00179369      -0.00759901
Cu       8.75781078      11.27020009      13.59377120  T      -0.00217886      -0.00554454      -0.00453431
Cu      11.27295930      11.26787715      13.58778544  T       0.02794383       0.00014867      -0.00500532
Cu       0.00613217       0.00157341      15.40186363  T      -0.00413306       0.00478769      -0.08919046
Cu       2.51117822       0.00199679      15.39972597  T       0.00152611       0.00155043      -0.08641475
Cu       5.00095264       0.00446866      15.37630308  T       0.01369247       0.00563934      -0.04768222
Cu       7.51154427      12.46594142      15.42221822  T      -0.00142520      -0.02508228      -0.06451178
Cu      10.03173340       0.00068395      15.37423401  T      -0.01735761       0.00153633      -0.05681400
Cu       0.04693821       2.49856982      15.36674334  T       0.00338685       0.01108732      -0.04979945
Cu       2.49372558       2.50042858      15.36622095  T      -0.00620495       0.00823912      -0.04422802
Cu       4.94678017       2.45234498      15.41803959  T      -0.04799052      -0.06543536      -0.08674521
Cu       7.51548016       2.43060140      15.54367658  T      -0.02257776      -0.12177503      -0.01419604
Cu      10.11220033       2.46899614      15.40903793  T       0.04349479      -0.05821268      -0.07296735
Cu      12.49088174       5.00390084      15.34916295  T       0.00168327       0.00293207      -0.05906219
Cu       2.39778467       5.00191055      15.36967219  T      -0.01753629      -0.00906610      -0.05069167
Pd       4.89601120       5.09136036      15.50939000  T      -0.02231824       0.01478597      -0.07225068
Y        7.50824252       4.92769081      17.28753925  T      -0.00385799      -0.11032758       0.13126660
Cu      10.00994927       5.10928231      15.42023976  T       0.10337245       0.04103906      -0.13838568
Cu       0.05217305       7.50695121      15.38092616  T       0.00786273      -0.01338468      -0.04716572
Cu       2.53380624       7.49578907      15.38097501  T      -0.00129017      -0.01377484      -0.04903292
Cu       5.01174646       7.64614525      15.51366405  T      -0.04163311       0.06334419      -0.08231173
Cu       7.54798677       7.47369444      15.52231213  T       0.02053289       0.08034055      -0.16510312
Cu      10.09115835       7.60177916      15.48686965  T       0.04234123       0.04328372      -0.07300349
Cu      12.51191433      10.00335516      15.40496281  T      -0.00038355       0.00057096      -0.08836812
Cu       2.51004222      10.00117039      15.40440574  T      -0.00519691      -0.00611538      -0.08360744
Cu       5.00696229      10.08202329      15.38655960  T       0.02008307       0.00359735      -0.03927675
Cu       7.50686073      10.00578498      15.37671234  T       0.00021059      -0.01759930      -0.05487615
Cu      10.01360257      10.05935947      15.38217469  T      -0.01368404       0.00924658      -0.04596115
O        6.03175463       3.58140382      16.47563930  T      -0.04963253       0.01485194       0.02851980
O        6.14025989       6.60049966      16.66036136  T      -0.10749606      -0.04203058       0.14646676
O        8.97763382       6.48216750      16.56104496  T       0.09270821       0.05000808       0.13526639
O        8.95824560       3.71002743      16.26041169  T       0.04095192      -0.05010242       0.02953658
C        7.60506063       2.57069378      18.42386109  T      -0.02265280      -0.33589637       0.58159906
O        7.53551267       2.20655212      19.76013510  T       0.04757343       0.45968350      -0.64315852
O        7.63935553       1.59294728      17.62255655  T       0.00159905       0.11404526       0.23933807
H        7.51565099       1.22331096      19.77311317  T       0.00168439      -0.30606904       0.06900573
108
Lattice="12.51515363 0.0 0.0 0.0 12.51515363 0.0 0.0 0.0 25.30973" Properties=species:S:1:pos:R:3:move_mask:L:1:forces:R:3 energy=-444.00666931 stress="0.008008535627984118 -3.6118683326626655e-05 -4.892508664922344e-05 -3.6118683326626655e-05 0.008111730605275352 0.00029620396642851825 -4.892508664922344e-05 0.00029620396642851825 0.002670446388029082" free_energy=-444.01035435 pbc="T T T"
Cu       1.25151999       1.25151999      10.00000011  F       0.00200240      -0.02021519      -0.08060897
Cu       3.75454997       1.25151999      10.00000011  F       0.00706930       0.00177502      -0.07145294
Cu       6.25757994       1.25151999      10.00000011  F      -0.01601061       0.01422822      -0.05187331
Cu       8.76061004       1.25151999      10.00000011  F       0.01423055       0.00798987      -0.04488532
Cu      11.26364002       1.25151999      10.00000011  F      -0.00802892      -0.00049169      -0.07236136
Cu       1.25151999       3.75454997      10.00000011  F       0.00000442       0.00495860      -0.06500982
Cu       3.75454997       3.75454997      10.00000011  F       0.01336957      -0.01395202      -0.05696928
Cu       6.25757994       3.75454997      10.00000011  F      -0.01795111      -0.01337493      -0.08405721
Cu       8.76061004       3.75454997      10.00000011  F       0.01837239      -0.01179664      -0.08767093
Cu      11.26364002       3.75454997      10.00000011  F      -0.01283662       0.00143371      -0.05931017
Cu       1.25151999       6.25757994      10.00000011  F      -0.00425421      -0.00010392      -0.07588836
Cu       3.75454997       6.25757994      10.00000011  F       0.01345490       0.02080827      -0.06241796
Cu       6.25757994       6.25757994      10.00000011  F      -0.01741063       0.01850798      -0.08534547
Cu       8.76061004       6.25757994      10.00000011  F       0.01863911       0.01806113      -0.08381661
Cu      11.26364002       6.25757994      10.00000011  F      -0.00871199       0.00596659      -0.06671755
Cu       1.25151999       8.76061004      10.00000011  F      -0.00151073       0.00782160      -0.07816698
Cu       3.75454997       8.76061004      10.00000011  F       0.00277658      -0.01272221      -0.06868530
Cu       6.25757994       8.76061004      10.00000011  F      -0.00965354      -0.01976769      -0.05685281
Cu       8.76061004       8.76061004      10.00000011  F       0.01186616      -0.01494796      -0.05207340
Cu      11.26364002       8.76061004      10.00000011  F      -0.00576513      -0.01253879      -0.07254720
Cu       1.25151999      11.26364002      10.00000011  F      -0.00330546       0.00713130      -0.01833565
Cu       3.75454997      11.26364002      10.00000011  F      -0.00957493       0.00397929      -0.07085674
Cu       6.25757994      11.26364002      10.00000011  F      -0.00017891       0.00365302      -0.06920057
Cu       8.76061004      11.26364002      10.00000011  F      -0.00347406      -0.00035847      -0.06871822
Cu      11.26364002      11.26364002      10.00000011  F       0.01485594       0.00259793      -0.06805793
Cu       0.00000000       0.00000000      11.76991004  F      -0.01582524       0.02760186       0.11160807
Cu       2.50302998       0.00000000      11.76991004  F       0.03416309       0.00253132       0.09588829
Cu       5.00605995       0.00000000      11.76991004  F       0.05553986       0.06203684       0.11656845
Cu       7.50909005       0.00000000      11.76991004  F       0.01436540       0.06048067       0.09664899
Cu      10.01212003       0.00000000      11.76991004  F      -0.04829387       0.06627311       0.13443050
Cu       0.00000000       2.50302998      11.76991004  F      -0.07874120       0.01587621       0.07925129
Cu       2.50302998       2.50302998      11.76991004  F       0.06240168       0.02028608       0.07315930
Cu       5.00605995       2.50302998      11.76991004  F       0.00617705      -0.02953548       0.12420008
Cu       7.50909005       2.50302998      11.76991004  F      -0.01883401      -0.01326878       0.18121067
Cu      10.01212003       2.50302998      11.76991004  F       0.00351710      -0.02856346       0.12173922
Cu       0.00000000       5.00605995      11.76991004  F      -0.07005345       0.03521856       0.05420400
Cu       2.50302998       5.00605995      11.76991004  F       0.04902129       0.01315301       0.07004437
Cu       5.00605995       5.00605995      11.76991004  F      -0.00272075       0.00032294       0.15499551
Cu       7.50909005       5.00605995      11.76991004  F      -0.05237400      -0.01387660       0.18439993
Cu      10.01212003       5.00605995      11.76991004  F      -0.01677634       0.00251750       0.11936389
Cu       0.00000000       7.50909005      11.76991004  F      -0.05073060       0.00553282       0.10441829
Cu       2.50302998       7.50909005      11.76991004  F       0.04137497       0.04401123       0.06061059
Cu       5.00605995       7.50909005      11.76991004  F       0.00504206       0.07441851       0.09212598
Cu       7.50909005       7.50909005      11.76991004  F      -0.04192031       0.05591592       0.12412764
Cu      10.01212003       7.50909005      11.76991004  F       0.05839516       0.09618842       0.06014191
Cu       0.00000000      10.01212003      11.76991004  F      -0.01364068      -0.04015283       0.13496731
Cu       2.50302998      10.01212003      11.76991004  F       0.04282757      -0.03717525       0.13943269
Cu       5.00605995      10.01212003      11.76991004  F       0.07050605      -0.06304238       0.14874198
Cu       7.50909005      10.01212003      11.76991004  F       0.01917469      -0.05519889       0.14212094
Cu      10.01212003      10.01212003      11.76991004  F      -0.05577376      -0.05901628       0.15583276
Cu       1.26022841       1.23632635      13.58362731  T      -0.00430140      -0.01809768      -0.01046453
Cu       3.76992746       1.25937188      13.59853246  T      -0.00643558      -0.01019960      -0.01925592
Cu       6.28394286       1.26739421      13.62420766  T       0.00360291      -0.00451008      -0.00008819
Cu       8.75137661       1.27034191      13.62380397  T      -0.00335170      -0.01008897       0.00541748
Cu      11.26413737       1.26470508      13.60050004  T       0.01224589      -0.01464314      -0.01996402
Cu       1.23843390       3.74809603      13.56901246  T       0.00269616       0.00127392      -0.01155985
Cu       3.75303564       3.76652184      13.59820141  T      -0.01543578       0.00203906      -0.01002121
Cu       6.26815199       3.76296328      13.59278260  T      -0.00073898      -0.00578135      -0.03145386
Cu       8.73063600       3.76682033      13.58634026  T      -0.00755665      -0.00901698      -0.02984909
Cu      11.23439123       3.78009477      13.59640366  T      -0.00292046      -0.00300484       0.00265712
Cu       1.24427334       6.26161833      13.57567550  T      -0.00161413       0.00184033      -0.01021169
Cu       3.75351196       6.28902452      13.58582166  T      -0.01716666       0.02006703      -0.01144610
Cu       6.26856938       6.25430948      13.58638303  T      -0.00231107       0.00919570      -0.05261477
Cu       8.74100330       6.26431885      13.55828012  T       0.00319501       0.00094921      -0.04562051
Cu      11.24039600       6.27944429      13.60313833  T      -0.00417693       0.00573852       0.00374473
Cu       1.26577288       8.76602185      13.59365680  T      -0.00263278       0.00983867      -0.00945863
Cu       3.78809509       8.76415133      13.62128363  T      -0.00895878       0.01368208      -0.01970272
Cu       6.28448064       8.73520378      13.62734481  T      -0.00731557       0.00233535      -0.00401789
Cu       8.76086210       8.73756414      13.62767965  T       0.00066603       0.00307732      -0.00264588
Cu      11.25989987       8.76260684      13.61553529  T       0.01414620       0.00809779      -0.01661284
Cu       1.25146981      11.25810357      13.61209519  T      -0.00775764       0.00049866      -0.00999604
Cu       3.74614492      11.26735514      13.58762726  T      -0.01260366       0.00171026      -0.01143351
Cu       6.26266272      11.26900051      13.58839414  T      -0.00400712      -0.00194565      -0.01003693
Cu       8.75778975      11.27014652      13.59372741  T      -0.00207847      -0.00563479      -0.00740676
Cu      11.27322888      11.26787853      13.58773736  T       0.02437790      -0.00021098      -0.00759160
Cu       0.00609225       0.00161971      15.40100285  T      -0.00430119       0.00498527      -0.08369128
Cu       2.51119298       0.00201169      15.39889227  T       0.00224291       0.00173671      -0.08180882
Cu       5.00108480       0.00452310      15.37584295  T       0.01347710       0.00377678      -0.04566177
Cu       7.51153051      12.46569937      15.42159586  T      -0.00182175      -0.02622274      -0.06031443
Cu      10.03156595       0.00069872      15.37368580  T      -0.01717533       0.00023869      -0.05360494
Cu       0.04697087       2.49867683      15.36626297  T       0.00451844       0.01049945      -0.04733586
Cu       2.49366576       2.50050805      15.36579423  T      -0.00674090       0.00753859      -0.04236118
Cu       4.94631711       2.45171372      15.41720285  T      -0.03747722      -0.05297983      -0.07610669
Cu       7.51526227       2.42942648      15.54353965  T      -0.02047360      -0.11073507       0.00107439
Cu      10.11261996       2.46843446      15.40833381  T       0.03402725      -0.04944363      -0.06446780
Cu      12.49089789       5.00392912      15.34859298  T       0.00429881       0.00238250      -0.05568910
Cu       2.39761546       5.00182307      15.36918320  T      -0.01581689      -0.00873445      -0.04804499
Pd       4.89579581       5.09150303      15.50869297  T      -0.01044437       0.01320471      -0.05815353
Y        7.50820535       4.92662627      17.28880575  T       0.00207797      -0.09580626       0.11647703
Cu      10.01094660       5.10967829      15.41890442  T       0.08272198       0.03347389      -0.11902213
Cu       0.05224889       7.50682205      15.38047109  T       0.00863326      -0.01261624      -0.04439824
Cu       2.53379372       7.49565616      15.38050197  T      -0.00211963      -0.01331383      -0.04659256
Cu       5.01134472       7.64675649      15.51286983  T      -0.02973868       0.04964464      -0.06933890
Cu       7.54818489       7.47446963      15.52071914  T       0.01564432       0.05929606      -0.14075573
Cu      10.09156697       7.60219679      15.48616528  T       0.03301950       0.03468605      -0.06201268
Cu      12.51191058      10.00336067      15.40411038  T      -0.00072432       0.00014748      -0.08288997
Cu       2.50999203      10.00111145      15.40359912  T      -0.00393623      -0.00594344      -0.07913289
Cu       5.00715615      10.08205796      15.38618046  T       0.01875772       0.00536946      -0.03777732
Cu       7.50686285      10.00561515      15.37618286  T      -0.00030112      -0.01544023      -0.05187886
Cu      10.01347054      10.05944871      15.38173126  T      -0.01284631       0.00984395      -0.04370044
O        6.03127568       3.58154712      16.47591442  T      -0.05388287       0.00791116       0.01956655
O        6.13922276       6.60009404      16.66177465  T      -0.10313600      -0.03559943       0.12617652
O        8.97852828       6.48265009      16.56235019  T       0.08681220       0.04996658       0.11971741
O        8.95864070       3.70954397      16.26069668  T       0.04317061      -0.04561993       0.02082810
C        7.60484211       2.56745285      18.42947276  T      -0.01019367      -0.09581481       0.32362874
O        7.53597172       2.21098736      19.75392941  T       0.02544593       0.06730190      -0.32265432
O        7.63937092       1.59404761      17.62486581  T       0.00405556      -0.00773275       0.15169624
H        7.51566726       1.22035776      19.77377882  T       0.00786354      -0.02438911       0.06951010
108
Lattice="12.51515363 0.0 0.0 0.0 12.51515363 0.0 0.0 0.0 25.30973" Properties=species:S:1:pos:R:3:move_mask:L:1:forces:R:3 energy=-444.01365069 stress="0.008068002074294155 -3.4895565990772944e-05 -4.197223272826327e-05 -3.4895565990772944e-05 0.008170745690611441 0.0003022757564382505 -4.197223272826327e-05 0.0003022757564382505 0.002627521201687479" free_energy=-444.01733023 pbc="T T T"
Cu       1.25151999       1.25151999      10.00000011  F       0.00161133      -0.02008192      -0.08035928
Cu       3.75454997       1.25151999      10.00000011  F       0.00719629       0.00192682      -0.07160117
Cu       6.25757994       1.25151999      10.00000011  F      -0.01560095       0.01428600      -0.05199607
Cu       8.76061004       1.25151999      10.00000011  F       0.01433651       0.00799229      -0.04463150
Cu      11.26364002       1.25151999      10.00000011  F      -0.00823753      -0.00041135      -0.07179186
Cu       1.25151999       3.75454997      10.00000011  F      -0.00030408       0.00462331      -0.06477766
Cu       3.75454997       3.75454997      10.00000011  F       0.01349905      -0.01413542      -0.05705895
Cu       6.25757994       3.75454997      10.00000011  F      -0.01765281      -0.01354204      -0.08426186
Cu       8.76061004       3.75454997      10.00000011  F       0.01852066      -0.01203411      -0.08751700
Cu      11.26364002       3.75454997      10.00000011  F      -0.01302550       0.00113131      -0.05878168
Cu       1.25151999       6.25757994      10.00000011  F      -0.00452464      -0.00038325      -0.07588414
Cu       3.75454997       6.25757994      10.00000011  F       0.01367205       0.02049669      -0.06269025
Cu       6.25757994       6.25757994      10.00000011  F      -0.01711894       0.01827988      -0.08554197
Cu       8.76061004       6.25757994      10.00000011  F       0.01871821       0.01785319      -0.08366330
Cu      11.26364002       6.25757994      10.00000011  F      -0.00896622       0.00568483      -0.06639422
Cu       1.25151999       8.76061004      10.00000011  F      -0.00183841       0.00781293      -0.07822066
Cu       3.75454997       8.76061004      10.00000011  F       0.00301817      -0.01282752      -0.06912628
Cu       6.25757994       8.76061004      10.00000011  F      -0.00931243      -0.01986125      -0.05710164
Cu       8.76061004       8.76061004      10.00000011  F       0.01193497      -0.01493175      -0.05196130
Cu      11.26364002       8.76061004      10.00000011  F      -0.00603606      -0.01251624      -0.07233412
Cu       1.25151999      11.26364002      10.00000011  F      -0.00367457       0.00732883      -0.01832006
Cu       3.75454997      11.26364002      10.00000011  F      -0.00942059       0.00414057      -0.07099367
Cu       6.25757994      11.26364002      10.00000011  F       0.00022540       0.00381173      -0.06945405
Cu       8.76061004      11.26364002      10.00000011  F      -0.00332819      -0.00018380      -0.06855004
Cu      11.26364002      11.26364002      10.00000011  F       0.01460776       0.00280051      -0.06759594
Cu       0.00000000       0.00000000      11.76991004  F      -0.01622672       0.02764605       0.11011885
Cu       2.50302998       0.00000000      11.76991004  F       0.03363131       0.00268351       0.09503862
Cu       5.00605995       0.00000000      11.76991004  F       0.05592717       0.06217786       0.11635900
Cu       7.50909005       0.00000000      11.76991004  F       0.01496944       0.06056991       0.09647951
Cu      10.01212003       0.00000000      11.76991004  F      -0.04829105       0.06614803       0.13448115
Cu       0.00000000       2.50302998      11.76991004  F      -0.07906544       0.01593637       0.07905751
Cu       2.50302998       2.50302998      11.76991004  F       0.06171372       0.02010894       0.07282024
Cu       5.00605995       2.50302998      11.76991004  F       0.00607727      -0.02991884       0.12402605
Cu       7.50909005       2.50302998      11.76991004  F      -0.01830471      -0.01427831       0.18044953
Cu      10.01212003       2.50302998      11.76991004  F       0.00381868      -0.02920738       0.12170107
Cu       0.00000000       5.00605995      11.76991004  F      -0.07077120       0.03486860       0.05432171
Cu       2.50302998       5.00605995      11.76991004  F       0.04859271       0.01300961       0.06964010
Cu       5.00605995       5.00605995      11.76991004  F      -0.00354411       0.00002350       0.15438019
Cu       7.50909005       5.00605995      11.76991004  F      -0.05206378      -0.01460892       0.18239175
Cu      10.01212003       5.00605995      11.76991004  F      -0.01581122       0.00188971       0.11859159
Cu       0.00000000       7.50909005      11.76991004  F      -0.05103980       0.00518901       0.10417144
Cu       2.50302998       7.50909005      11.76991004  F       0.04057345       0.04404017       0.06003367
Cu       5.00605995       7.50909005      11.76991004  F       0.00478562       0.07486254       0.09112147
Cu       7.50909005       7.50909005      11.76991004  F      -0.04148880       0.05705359       0.12242998
Cu      10.01212003       7.50909005      11.76991004  F       0.05897407       0.09672847       0.05938877
Cu       0.00000000      10.01212003      11.76991004  F      -0.01394298      -0.03991615       0.13381794
Cu       2.50302998      10.01212003      11.76991004  F       0.04227268      -0.03693205       0.13879963
Cu       5.00605995      10.01212003      11.76991004  F       0.07088379      -0.06287918       0.14845487
Cu       7.50909005      10.01212003      11.76991004  F       0.01965147      -0.05518923       0.14200101
Cu      10.01212003      10.01212003      11.76991004  F      -0.05572217      -0.05870724       0.15588992