108
Lattice="12.51515363 0.0 0.0 0.0 12.51515363 0.0 0.0 0.0 25.30973" Properties=species:S:1:pos:R:3:move_mask:L:1:forces:R:3 energy=-445.26053276 stress="0.00849973340217648 5.004922613335889e-05 0.0002951765016792336 5.004922613335889e-05 0.008292581271948617 2.3308759792882884e-05 0.0002951765016792336 2.3308759792882884e-05 0.0031767903075870423" free_energy=-445.26017872 pbc="T T T"
Cu       1.25151999       1.25151999      10.00000011  F       0.00655345      -0.00293180      -0.06280736
Cu       3.75454997       1.25151999      10.00000011  F       0.00347242       0.00762986      -0.06606167
Cu       6.25757994       1.25151999      10.00000011  F      -0.00093377       0.01521325      -0.05684790
Cu       8.76061004       1.25151999      10.00000011  F       0.01038976       0.01048684      -0.05786244
Cu      11.26364002       1.25151999      10.00000011  F      -0.02100565       0.00202701      -0.05770445
Cu       1.25151999       3.75454997      10.00000011  F       0.00557633       0.01555983      -0.06572592
Cu       3.75454997       3.75454997      10.00000011  F       0.00283238      -0.01025230      -0.05312054
Cu       6.25757994       3.75454997      10.00000011  F      -0.00839635      -0.02998886      -0.07397057
Cu       8.76061004       3.75454997      10.00000011  F       0.01164689      -0.02665636      -0.07873110
Cu      11.26364002       3.75454997      10.00000011  F      -0.01093255      -0.00451833      -0.05875324
Cu       1.25151999       6.25757994      10.00000011  F      -0.00072597      -0.01328723      -0.05435947
Cu       3.75454997       6.25757994      10.00000011  F       0.00912717       0.01194833      -0.04212971
Cu       6.25757994       6.25757994      10.00000011  F      -0.01942801       0.02446506      -0.07042383
Cu       8.76061004       6.25757994      10.00000011  F       0.01372693       0.02002811      -0.08405586
Cu      11.26364002       6.25757994      10.00000011  F      -0.00196940      -0.00481742      -0.05069352
Cu       1.25151999       8.76061004      10.00000011  F       0.00136477       0.02348461      -0.05955604
Cu       3.75454997       8.76061004      10.00000011  F      -0.00101236       0.00223346      -0.05942435
Cu       6.25757994       8.76061004      10.00000011  F      -0.00842579      -0.01733539      -0.05662469
Cu       8.76061004       8.76061004      10.00000011  F       0.00428534      -0.01734038      -0.03674911
Cu      11.26364002       8.76061004      10.00000011  F       0.00436005       0.00532991      -0.06638040
Cu       1.25151999      11.26364002      10.00000011  F       0.00502248      -0.02193282      -0.02680719
Cu       3.75454997      11.26364002      10.00000011  F      -0.01153452      -0.01122004      -0.07677068
Cu       6.25757994      11.26364002      10.00000011  F      -0.00169419       0.00716446      -0.06929708
Cu       8.76061004      11.26364002      10.00000011  F       0.00412871       0.01171639      -0.05739033
Cu      11.26364002      11.26364002      10.00000011  F       0.00255071       0.00237419      -0.06096267
Cu       0.00000000       0.00000000      11.76991004  F      -0.03125707       0.03576687       0.14073746
Cu       2.50302998       0.00000000      11.76991004  F       0.03226429       0.01148783       0.12098260
Cu       5.00605995       0.00000000      11.76991004  F       0.05962715       0.08027896       0.10547455
Cu       7.50909005       0.00000000      11.76991004  F       0.01464689       0.07522304       0.11639087
Cu      10.01212003       0.00000000      11.76991004  F      -0.03636612       0.09720561       0.13802107
Cu       0.00000000       2.50302998      11.76991004  F      -0.03020040       0.04970865       0.16359495
Cu       2.50302998       2.50302998      11.76991004  F       0.07357340       0.02468900       0.10400673
Cu       5.00605995       2.50302998      11.76991004  F      -0.02465626      -0.04261689       0.10173259
Cu       7.50909005       2.50302998      11.76991004  F       0.00328080      -0.03960920       0.11351297
Cu      10.01212003       2.50302998      11.76991004  F       0.03887809      -0.06890703       0.08205299
Cu       0.00000000       5.00605995      11.76991004  F      -0.02556950       0.01682054       0.11734446
Cu       2.50302998       5.00605995      11.76991004  F       0.09376447       0.02389689       0.12586571
Cu       5.00605995       5.00605995      11.76991004  F      -0.06556785       0.01021265       0.17106597
Cu       7.50909005       5.00605995      11.76991004  F      -0.01075819       0.00098512       0.12146387
Cu      10.01212003       5.00605995      11.76991004  F       0.03842080       0.00473964       0.09713840
Cu       0.00000000       7.50909005      11.76991004  F      -0.04212774      -0.05716196       0.15105195
Cu       2.50302998       7.50909005      11.76991004  F       0.08063991      -0.05838083       0.15069860
Cu       5.00605995       7.50909005      11.76991004  F      -0.04024704       0.04390105       0.10817410
Cu       7.50909005       7.50909005      11.76991004  F      -0.00779328       0.03421249       0.11186089
Cu      10.01212003       7.50909005      11.76991004  F       0.06022899       0.05810919       0.09098904
Cu       0.00000000      10.01212003      11.76991004  F       0.00364195      -0.05985381       0.12983462
Cu       2.50302998      10.01212003      11.76991004  F       0.02640372      -0.01895001       0.08252906
Cu       5.00605995      10.01212003      11.76991004  F       0.02657802      -0.10710631       0.11765851
Cu       7.50909005      10.01212003      11.76991004  F       0.02921443      -0.07379546       0.12904967
Cu      10.01212003      10.01212003      11.76991004  F      -0.05455643      -0.09250439       0.14557657
Cu       1.25861521       1.24082292      13.58041601  T      -0.00437546      -0.01295239      -0.00287139
Cu       3.78727572       1.25647900      13.60731139  T      -0.01196198      -0.00424276      -0.01660356
Cu       6.28295467       1.27292141      13.62547745  T      -0.00284191      -0.00538465      -0.00070992
Cu       8.75758951       1.28233105      13.62629572  T       0.00388878      -0.01037558      -0.00960831
Cu      11.25604069       1.26121636      13.61593138  T       0.01676725      -0.01290218      -0.02476834
Cu       1.26926310       3.76708039      13.59381903  T       0.00906946       0.00068308      -0.00264976
Cu       3.76706049       3.75385075      13.61822571  T      -0.02576503      -0.00548034      -0.01199463
Cu       6.28211678       3.75112845      13.57013090  T       0.00416432      -0.00003350      -0.05030365
Cu       8.75184456       3.76485232      13.57118100  T      -0.00176045      -0.00080965      -0.04485096
Cu      11.23695346       3.75707953      13.60716181  T      -0.00591020      -0.00008946       0.00538616
Cu       1.27497564       6.25822898      13.60492697  T       0.00449441       0.00516668      -0.00677424
Cu       3.75754535       6.26449569      13.63387294  T      -0.01775912       0.00270159      -0.02057567
Cu       6.27822619       6.25637123      13.57011546  T       0.00563499       0.00175454      -0.05073557
Cu       8.75300158       6.24691340      13.56787605  T      -0.00848230      -0.00266018      -0.03692474
Cu      11.24142562       6.24907552      13.61212050  T      -0.00299629      -0.00175324       0.00882993
Cu       1.27703914       8.75648267      13.59543607  T      -0.00834295       0.00890150       0.00351600
Cu       3.76646439       8.74137651      13.62072555  T       0.00266317       0.00435765      -0.01154527
Cu       6.27702536       8.73668207      13.62168935  T      -0.00051613       0.00617593       0.00026737
Cu       8.75753369       8.73060121      13.62649086  T      -0.01183747       0.01651111      -0.00511174
Cu      11.25928262       8.75117312      13.61068088  T       0.01367586       0.00998863      -0.01269313
Cu       1.24698938      11.25740547      13.60560932  T      -0.01416356       0.00581032      -0.01449532
Cu       3.74515847      11.25855098      13.57954510  T      -0.01304939       0.00135140       0.00426641
Cu       6.25556963      11.26516474      13.57598630  T      -0.00190428      -0.00532134      -0.00528705
Cu       8.76100390      11.26476726      13.58443013  T       0.00226717      -0.00062942      -0.01181635
Cu      11.26665029      11.26408105      13.58766497  T       0.03095042       0.00917255      -0.00601354
Cu      12.51187929      12.51443101      15.40058372  T      -0.00464445       0.01189576      -0.09545279
Cu       2.50415083       0.00627460      15.39699379  T       0.00690226       0.01165474      -0.09033461
Cu       4.99802460      12.47722934      15.37883279  T       0.00869376       0.00253447      -0.04893401
Cu       7.50443103      12.49378438      15.37267417  T      -0.00320052       0.00044556      -0.05492800
Cu      10.01267708      12.49605801      15.38282743  T      -0.00828659       0.00555786      -0.05897804
Cu       0.05599317       2.49810789      15.36858463  T       0.00840315       0.00922478      -0.04749721
Cu       2.52054356       2.45912669      15.36756161  T       0.00016466       0.00786620      -0.05012887
Cu       5.00167902       2.41477737      15.49014903  T      -0.06002231      -0.07177987      -0.09164662
Cu       7.54980385       2.50801751      15.49734585  T       0.03170746      -0.06323826      -0.12989535
Cu      10.09847459       2.45861482      15.46405268  T       0.05053114      -0.05132595      -0.08492859
Cu      12.48583263       4.99540567      15.34022786  T      -0.01323733      -0.00144214      -0.07647795
Cu       2.44447958       4.92836588      15.47371593  T      -0.04616499      -0.03178907      -0.06757111
Pd       5.05860169       4.99312491      15.46739052  T       0.00036447       0.00038520      -0.06851230
Y        7.49412793       4.99434814      17.25582920  T      -0.01884787       0.02077631       0.07774251
Cu       9.98420911       5.00475913      15.46775245  T       0.09981546      -0.00052531      -0.14977883
Cu       0.02785022       7.50943810      15.36177859  T       0.00480139      -0.00915265      -0.04632007
Cu       2.50581647       7.58961030      15.49105082  T      -0.01305738       0.01468310      -0.06988021
Cu       5.02016428       7.58470386      15.47472731  T      -0.05117798       0.07129623      -0.09610460
Cu       7.54894306       7.49615526      15.49990897  T       0.03221174       0.07727036      -0.12560595
Cu      10.08343100       7.55949083      15.46309268  T       0.04340175       0.05935228      -0.08502685
Cu      12.51391363      10.00433472      15.39583283  T      -0.00536663      -0.00985000      -0.09013135
Cu       2.50576303      10.05782036      15.39955083  T       0.01381487       0.00496401      -0.07345724
Cu       5.00411510      10.03774968      15.37116774  T       0.00570206      -0.01404448      -0.04969271
Cu       7.50575288      10.02954287      15.37172101  T       0.00220469      -0.02063709      -0.06086014
Cu      10.01505933      10.03504654      15.37916156  T      -0.01523314      -0.01439523      -0.05569084
O        6.15600533       3.39484969      16.68161824  T      -0.10856644       0.02076412       0.12451922
O        6.15555779       6.58342886      16.67377754  T      -0.09277024      -0.04258336       0.13481428
O        8.98914201       6.41345205      16.53974404  T       0.02530240       0.08448911       0.11668687
O        8.98855805       3.58415453      16.54419046  T       0.05243535      -0.11076299       0.09990634
C        2.71378166       6.84634446      17.26053832  T       0.03639783       0.14435010       0.60894308
O        2.82803212       7.61276120      18.38867727  T      -0.09296483      -0.20907311      -0.78362885
O        2.76220391       5.59105690      17.41543868  T      -0.08232578       0.30985555       0.03395009
H        2.93922400       6.98835829      19.13811002  T       0.02006088      -0.16443854       0.24536990
108
Lattice="12.51515363 0.0 0.0 0.0 12.51515363 0.0 0.0 0.0 25.30973" Properties=species:S:1:pos:R:3:move_mask:L:1:forces:R:3 energy=-445.27304933999994 stress="0.008509797498600475 4.099101756160142e-05 0.00029070563379425394 4.099101756160142e-05 0.008241709115320028 -6.512396863455719e-05 0.00029070563379425394 -6.512396863455719e-05 0.0031247370389790173" free_energy=-445.27268725 pbc="T T T"
Cu       1.25151999       1.25151999      10.00000011  F       0.00621481      -0.00262598      -0.06146792
Cu       3.75454997       1.25151999      10.00000011  F       0.00381117       0.00830769      -0.06619437
Cu       6.25757994       1.25151999      10.00000011  F      -0.00093783       0.01575020      -0.05687761
Cu       8.76061004       1.25151999      10.00000011  F       0.01067731       0.01083433      -0.05802781
Cu      11.26364002       1.25151999      10.00000011  F      -0.02122981       0.00239539      -0.05909684
Cu       1.25151999       3.75454997      10.00000011  F       0.00566649       0.01606589      -0.06563591
Cu       3.75454997       3.75454997      10.00000011  F       0.00296084      -0.00977269      -0.05311304
Cu       6.25757994       3.75454997      10.00000011  F      -0.00841717      -0.02968211      -0.07378623
Cu       8.76061004       3.75454997      10.00000011  F       0.01152629      -0.02645631      -0.07860531
Cu      11.26364002       3.75454997      10.00000011  F      -0.01094281      -0.00463035      -0.05857184
Cu       1.25151999       6.25757994      10.00000011  F      -0.00058590      -0.01293664      -0.05425959
Cu       3.75454997       6.25757994      10.00000011  F       0.00912128       0.01172525      -0.04198685
Cu       6.25757994       6.25757994      10.00000011  F      -0.01948563       0.02423759      -0.07026133
Cu       8.76061004       6.25757994      10.00000011  F       0.01371509       0.01993681      -0.08396218
Cu      11.26364002       6.25757994      10.00000011  F      -0.00196957      -0.00426561      -0.05052718
Cu       1.25151999       8.76061004      10.00000011  F       0.00085495       0.02307691      -0.06149557
Cu       3.75454997       8.76061004      10.00000011  F      -0.00134772       0.00149218      -0.05971912
Cu       6.25757994       8.76061004      10.00000011  F      -0.00847902      -0.01783297      -0.05673344
Cu       8.76061004       8.76061004      10.00000011  F       0.00482157      -0.01770238      -0.03687303
Cu      11.26364002       8.76061004      10.00000011  F       0.00477491       0.00493199      -0.06809143
Cu       1.25151999      11.26364002      10.00000011  F       0.00461252      -0.02272601      -0.02739586
Cu       3.75454997      11.26364002      10.00000011  F      -0.01163144      -0.01140598      -0.07515653
Cu       6.25757994      11.26364002      10.00000011  F      -0.00144528       0.00705419      -0.06899294
Cu       8.76061004      11.26364002      10.00000011  F       0.00430037       0.01165638      -0.05766905
Cu      11.26364002      11.26364002      10.00000011  F       0.00256907       0.00196636      -0.06124914
Cu       0.00000000       0.00000000      11.76991004  F      -0.03121760       0.03616398       0.13918585
Cu       2.50302998       0.00000000      11.76991004  F       0.03237643       0.01167104       0.12044656
Cu       5.00605995       0.00000000      11.76991004  F       0.05964886       0.08045851       0.10542493
Cu       7.50909005       0.00000000      11.76991004  F       0.01464372       0.07554634       0.11591119
Cu      10.01212003       0.00000000      11.76991004  F      -0.03638894       0.09748811       0.13716517
Cu       0.00000000       2.50302998      11.76991004  F      -0.03020667       0.05031078       0.16314280
Cu       2.50302998       2.50302998      11.76991004  F       0.07333837       0.02514634       0.10343707
Cu       5.00605995       2.50302998      11.76991004  F      -0.02479578      -0.04241257       0.10091919
Cu       7.50909005       2.50302998      11.76991004  F       0.00319020      -0.03986433       0.11204992
Cu      10.01212003       2.50302998      11.76991004  F       0.03929642      -0.06878106       0.08108966
Cu       0.00000000       5.00605995      11.76991004  F      -0.02545712       0.01697944       0.11745722
Cu       2.50302998       5.00605995      11.76991004  F       0.09363888       0.02391486       0.12477633
Cu       5.00605995       5.00605995      11.76991004  F      -0.06628835       0.01022308       0.16983663
Cu       7.50909005       5.00605995      11.76991004  F      -0.01069700       0.00097768       0.11907454
Cu      10.01212003       5.00605995      11.76991004  F       0.03887872       0.00487438       0.09608457
Cu       0.00000000       7.50909005      11.76991004  F      -0.04218181      -0.05730800       0.15026233
Cu       2.50302998       7.50909005      11.76991004  F       0.08023897      -0.05831989       0.14999274
Cu       5.00605995       7.50909005      11.76991004  F      -0.04046111       0.04368589       0.10730936
Cu       7.50909005       7.50909005      11.76991004  F      -0.00771663       0.03438219       0.11041445
Cu      10.01212003       7.50909005      11.76991004  F       0.06068975       0.05816693       0.09031765
Cu       0.00000000      10.01212003      11.76991004  F       0.00350078      -0.06070085       0.12797731
Cu       2.50302998      10.01212003      11.76991004  F       0.02620281      -0.01961176       0.08232720
Cu       5.00605995      10.01212003      11.76991004  F       0.02661683      -0.10731194       0.11739316
Cu       7.50909005      10.01212003      11.76991004  F       0.02907504      -0.07403185       0.12845586
Cu      10.01212003      10.01212003      11.76991004  F      -0.05404687      -0.09303153       0.14493596
Cu       1.25857303       1.24069802      13.58038842  T      -0.00388564      -0.01065287      -0.00574264
Cu       3.78716033       1.25643807      13.60715118  T      -0.01141867      -0.00407047      -0.01948761
Cu       6.28292726       1.27286947      13.62547062  T      -0.00293287      -0.00483229      -0.00368249
Cu       8.75762693       1.28223093      13.62620308  T       0.00420931      -0.00993445      -0.01301683
Cu      11.25620251       1.26109183      13.61569246  T       0.01610346      -0.01136025      -0.02706663
Cu       1.26935071       3.76708690      13.59379321  T       0.00765333       0.00018770      -0.00579411
Cu       3.76681194       3.75379793      13.61811004  T      -0.02323114      -0.00459225      -0.01360181
Cu       6.28215695       3.75112808      13.56964545  T       0.00315499      -0.00011735      -0.04705681
Cu       8.75182766       3.76484443      13.57074820  T      -0.00159531      -0.00061428      -0.04203148
Cu      11.23689651       3.75707878      13.60721370  T      -0.00519412      -0.00122433       0.00087696
Cu       1.27501907       6.25827892      13.60486167  T       0.00478711       0.00552190      -0.00784307
Cu       3.75737401       6.26452172      13.63367452  T      -0.01698721       0.00252856      -0.01951940
Cu       6.27828063       6.25638825      13.56962597  T       0.00444284       0.00193318      -0.04725505
Cu       8.75291986       6.24688775      13.56751969  T      -0.00774559      -0.00239795      -0.03444069
Cu      11.24139671       6.24905863      13.61220579  T      -0.00284711      -0.00050106       0.00421965
Cu       1.27695855       8.75656853      13.59546998  T      -0.00768915       0.00785890      -0.00086285
Cu       3.76649018       8.74141856      13.62061419  T       0.00210076       0.00422419      -0.01532503
Cu       6.27702048       8.73674177      13.62169188  T      -0.00076436       0.00523492      -0.00308016
Cu       8.75741956       8.73076053      13.62644175  T      -0.01019893       0.01519747      -0.00924288
Cu      11.25941465       8.75126948      13.61055863  T       0.01277853       0.00907802      -0.01618589
Cu       1.24685272      11.25746154      13.60546935  T      -0.01230830       0.00493673      -0.01645238
Cu       3.74503257      11.25856400      13.57958636  T      -0.01164858       0.00110838       0.00150615
Cu       6.25555136      11.26511330      13.57593518  T      -0.00199947      -0.00503964      -0.00720488
Cu       8.76102580      11.26476125      13.58431599  T       0.00249905      -0.00053755      -0.01329201
Cu      11.26694890      11.26416954      13.58760676  T       0.02750252       0.00830238      -0.00843957
Cu      12.51183449      12.51454589      15.39966270  T      -0.00433139       0.01172462      -0.09071399
Cu       2.50421741       0.00638698      15.39612212  T       0.00680511       0.01115082      -0.08641439
Cu       4.99810845      12.47725374      15.37836076  T       0.00825343       0.00019951      -0.04686499
Cu       7.50440012      12.49378864      15.37214419  T      -0.00314647      -0.00132109      -0.05248744
Cu      10.01259710      12.49611170      15.38225821  T      -0.00799421       0.00352120      -0.05681182
Cu       0.05607427       2.49819687      15.36812627  T       0.00929434       0.00935991      -0.04569466
Cu       2.52054518       2.45920253      15.36707794  T      -0.00140726       0.00736535      -0.04820702
Cu       5.00109994       2.41408478      15.48926471  T      -0.04798177      -0.05865648      -0.07966098
Cu       7.55010972       2.50740740      15.49609252  T       0.02496499      -0.04943199      -0.11372889
Cu      10.09896205       2.45811960      15.46323315  T       0.04226949      -0.04216789      -0.07564158
Cu      12.48570485       4.99539166      15.33949008  T      -0.00979846      -0.00070121      -0.07270733
Cu       2.44403417       4.92805926      15.47306395  T      -0.04162889      -0.02156782      -0.05579650
Pd       5.05860520       4.99312867      15.46672943  T       0.00360034       0.00057061      -0.05897593
Y        7.49394609       4.99454864      17.25657912  T      -0.01024232       0.01377430       0.06556024
Cu       9.98517215       5.00475412      15.46630727  T       0.08200842       0.00021313      -0.13134202
Cu       0.02789653       7.50934974      15.36133162  T       0.00603902      -0.00960239      -0.04450785
Cu       2.50569057       7.58975197      15.49037657  T      -0.00984290      -0.00127932      -0.03705820
Cu       5.01967043       7.58539169      15.47380021  T      -0.03850718       0.05692936      -0.08535947
Cu       7.54925393       7.49690092      15.49869714  T       0.02681735       0.06294764      -0.10988859
Cu      10.08384975       7.56006352      15.46227239  T       0.03380721       0.04750595      -0.07437459
Cu      12.51386182      10.00423973      15.39496319  T      -0.00512287      -0.00955776      -0.08571216
Cu       2.50589632      10.05786829      15.39884216  T       0.01313744       0.00327670      -0.06999683
Cu       5.00417004      10.03761414      15.37068812  T       0.00582058      -0.01129273      -0.04750112
Cu       7.50577416      10.02934376      15.37113382  T       0.00161294      -0.01802796      -0.05776940
Cu      10.01491228      10.03490762      15.37862424  T      -0.01441247      -0.01176042      -0.05373300
O        6.15495781       3.39505005      16.68281944  T      -0.10653466       0.01554096       0.10788172
O        6.15466270       6.58301799      16.67507846  T      -0.09465442      -0.03289885       0.11889778
O        8.98938618       6.41426716      16.54086982  T       0.02895940       0.08227568       0.10142778
O        8.98906404       3.58308586      16.54515450  T       0.05153371      -0.10422284       0.08722371
C        2.71413283       6.84773727      17.26641372  T      -0.01035580       0.13305684       0.20294545
O        2.82713516       7.61074389      18.38111650  T      -0.02631231      -0.20544931      -0.23165397
O        2.76140970       5.59404652      17.41576619  T      -0.07535077       0.13086284       0.06521605
H        2.93941749       6.98677174      19.14047749  T      -0.01311748       0.02941517       0.02383400
108
Lattice="12.51515363 0.0 0.0 0.0 12.51515363 0.0 0.0 0.0 25.30973" Properties=species:S:1:pos:R:3:move_mask:L:1:forces:R:3 energy=-445.28025252000003 stress="0.008539182155316094 3.713574972170759e-05 0.00028112253302953704 3.713574972170759e-05 0.008221597387573115 -0.00010725766296239792 0.00028112253302953704 -0.00010725766296239792 0.003092575778272148" free_energy=-445.27986986 pbc="T T T"
Cu       1.25151999       1.25151999      10.00000011  F       0.00631695      -0.00288903      -0.06145009
Cu       3.75454997       1.25151999      10.00000011  F       0.00384824       0.00807987      -0.06626146
Cu       6.25757994       1.25151999      10.00000011  F      -0.00115287       0.01548384      -0.05692151
Cu       8.76061004       1.25151999      10.00000011  F       0.01069859       0.01057880      -0.05814785
Cu      11.26364002       1.25151999      10.00000011  F      -0.02106277       0.00213664      -0.05911092
Cu       1.25151999       3.75454997      10.00000011  F       0.00581834       0.01582232      -0.06592684
Cu       3.75454997       3.75454997      10.00000011  F       0.00294192      -0.00997626      -0.05354497
Cu       6.25757994       3.75454997      10.00000011  F      -0.00861400      -0.02993722      -0.07430236
Cu       8.76061004       3.75454997      10.00000011  F       0.01155728      -0.02673521      -0.07911943
Cu      11.26364002       3.75454997      10.00000011  F      -0.01076895      -0.00486567      -0.05888052
Cu       1.25151999       6.25757994      10.00000011  F      -0.00041894      -0.01282005      -0.05469146
Cu       3.75454997       6.25757994      10.00000011  F       0.00905942       0.01178948      -0.04243951
Cu       6.25757994       6.25757994      10.00000011  F      -0.01962665       0.02441351      -0.07079499
Cu       8.76061004       6.25757994      10.00000011  F       0.01371634       0.02010239      -0.08449287
Cu      11.26364002       6.25757994      10.00000011  F      -0.00180093      -0.00418330      -0.05091438
Cu       1.25151999       8.76061004      10.00000011  F       0.00098538       0.02337888      -0.06137217
Cu       3.75454997       8.76061004      10.00000011  F      -0.00134935       0.00174916      -0.05979215
Cu       6.25757994       8.76061004      10.00000011  F      -0.00853266      -0.01754955      -0.05680689
Cu       8.76061004       8.76061004      10.00000011  F       0.00466324      -0.01742655      -0.03699139
Cu      11.26364002       8.76061004      10.00000011  F       0.00495116       0.00522576      -0.06811715
Cu       1.25151999      11.26364002      10.00000011  F       0.00467668      -0.02272215      -0.02724046
Cu       3.75454997      11.26364002      10.00000011  F      -0.01162345      -0.01139298      -0.07493048
Cu       6.25757994      11.26364002      10.00000011  F      -0.00157756       0.00701841      -0.06894341
Cu       8.76061004      11.26364002      10.00000011  F       0.00428057       0.01166507      -0.05752032
Cu      11.26364002      11.26364002      10.00000011  F       0.00275363       0.00199183      -0.06103876
Cu       0.00000000       0.00000000      11.76991004  F      -0.03065505       0.03588471       0.13698412
Cu       2.50302998       0.00000000      11.76991004  F       0.03249785       0.01116219       0.11925949
Cu       5.00605995       0.00000000      11.76991004  F       0.05944327       0.07988757       0.10489268
Cu       7.50909005       0.00000000      11.76991004  F       0.01440192       0.07512700       0.11503444
Cu      10.01212003       0.00000000      11.76991004  F      -0.03640332       0.09689993       0.13596557
Cu       0.00000000       2.50302998      11.76991004  F      -0.02987016       0.05013249       0.16242671
Cu       2.50302998       2.50302998      11.76991004  F       0.07303631       0.02439740       0.10238048
Cu       5.00605995       2.50302998      11.76991004  F      -0.02527713      -0.04342488       0.09979699
Cu       7.50909005       2.50302998      11.76991004  F       0.00296020      -0.04145923       0.11015603
Cu      10.01212003       2.50302998      11.76991004  F       0.03994390      -0.06959888       0.07978132
Cu       0.00000000       5.00605995      11.76991004  F      -0.02527674       0.01690340       0.11729156
Cu       2.50302998       5.00605995      11.76991004  F       0.09340657       0.02379240       0.12363591
Cu       5.00605995       5.00605995      11.76991004  F      -0.06733272       0.01014382       0.16857078
Cu       7.50909005       5.00605995      11.76991004  F      -0.01071787       0.00096027       0.11606027
Cu      10.01212003       5.00605995      11.76991004  F       0.03974931       0.00495384       0.09456721
Cu       0.00000000       7.50909005      11.76991004  F      -0.04204221      -0.05698930       0.14975091
Cu       2.50302998       7.50909005      11.76991004  F       0.08003086      -0.05730401       0.14928421
Cu       5.00605995       7.50909005      11.76991004  F      -0.04077340       0.04466748       0.10613954
Cu       7.50909005       7.50909005      11.76991004  F      -0.00776110       0.03588282       0.10847433
Cu      10.01212003       7.50909005      11.76991004  F       0.06101227       0.05900265       0.08970016
Cu       0.00000000      10.01212003      11.76991004  F       0.00382396      -0.06044637       0.12621672
Cu       2.50302998      10.01212003      11.76991004  F       0.02626973      -0.01928882       0.08183636
Cu       5.00605995      10.01212003      11.76991004  F       0.02650567      -0.10679621       0.11676745
Cu       7.50909005      10.01212003      11.76991004  F       0.02871317      -0.07362213       0.12729681
Cu      10.01212003      10.01212003      11.76991004  F      -0.05382543      -0.09254471       0.14429887