108
Lattice="12.51515363 0.0 0.0 0.0 12.51515363 0.0 0.0 0.0 25.30973" Properties=species:S:1:pos:R:3:move_mask:L:1:forces:R:3 energy=-444.53589909 stress="0.008131460608565635 -2.9364215773232685e-05 -4.525240167578908e-05 -2.9364215773232685e-05 0.008053249231384616 0.0006493291978511936 -4.525240167578908e-05 0.0006493291978511936 0.002821957779999582" free_energy=-444.5382159 pbc="T T T"
Cu       1.25151999       1.25151999      10.00000011  F      -0.00091977      -0.01844260      -0.07775387
Cu       3.75454997       1.25151999      10.00000011  F       0.00853926       0.00081890      -0.07143550
Cu       6.25757994       1.25151999      10.00000011  F      -0.01460006       0.01256969      -0.04688442
Cu       8.76061004       1.25151999      10.00000011  F       0.01236113       0.00455544      -0.04033907
Cu      11.26364002       1.25151999      10.00000011  F      -0.00713539      -0.00233628      -0.07375623
Cu       1.25151999       3.75454997      10.00000011  F      -0.00111816       0.00132886      -0.06679089
Cu       3.75454997       3.75454997      10.00000011  F       0.01895549      -0.00641099      -0.05905228
Cu       6.25757994       3.75454997      10.00000011  F      -0.02149683      -0.00868350      -0.07952529
Cu       8.76061004       3.75454997      10.00000011  F       0.02195121      -0.00535319      -0.07779230
Cu      11.26364002       3.75454997      10.00000011  F      -0.01701905       0.00802933      -0.05752893
Cu       1.25151999       6.25757994      10.00000011  F      -0.00203572       0.00069140      -0.07475258
Cu       3.75454997       6.25757994      10.00000011  F       0.01871952       0.01565957      -0.06657553
Cu       6.25757994       6.25757994      10.00000011  F      -0.02050435       0.01512620      -0.08905914
Cu       8.76061004       6.25757994      10.00000011  F       0.02130001       0.01571854      -0.08352802
Cu      11.26364002       6.25757994      10.00000011  F      -0.01567514       0.00261836      -0.07107561
Cu       1.25151999       8.76061004      10.00000011  F      -0.00207181       0.00680245      -0.07646338
Cu       3.75454997       8.76061004      10.00000011  F       0.00254949      -0.01785148      -0.06901655
Cu       6.25757994       8.76061004      10.00000011  F      -0.00567789      -0.02263805      -0.05834909
Cu       8.76061004       8.76061004      10.00000011  F       0.00828472      -0.01710717      -0.05246130
Cu      11.26364002       8.76061004      10.00000011  F      -0.00462406      -0.01625529      -0.07160927
Cu       1.25151999      11.26364002      10.00000011  F      -0.00454807       0.00423293      -0.01390014
Cu       3.75454997      11.26364002      10.00000011  F      -0.00777592       0.00606068      -0.06948411
Cu       6.25757994      11.26364002      10.00000011  F       0.00398080       0.00916763      -0.06843972
Cu       8.76061004      11.26364002      10.00000011  F      -0.00696524       0.00556915      -0.07066682
Cu      11.26364002      11.26364002      10.00000011  F       0.01341544       0.00648735      -0.06885537
Cu       0.00000000       0.00000000      11.76991004  F      -0.02093362       0.04292339       0.11534481
Cu       2.50302998       0.00000000      11.76991004  F       0.03486626       0.01593142       0.09743618
Cu       5.00605995       0.00000000      11.76991004  F       0.06610166       0.06834385       0.11927808
Cu       7.50909005       0.00000000      11.76991004  F       0.01254594       0.06556863       0.09210486
Cu      10.01212003       0.00000000      11.76991004  F      -0.05364394       0.06860531       0.13716536
Cu       0.00000000       2.50302998      11.76991004  F      -0.08962606       0.02383407       0.08002274
Cu       2.50302998       2.50302998      11.76991004  F       0.06636266       0.03015535       0.08009004
Cu       5.00605995       2.50302998      11.76991004  F       0.01775983      -0.01298131       0.14537830
Cu       7.50909005       2.50302998      11.76991004  F      -0.02165385      -0.00405121       0.24350136
Cu      10.01212003       2.50302998      11.76991004  F      -0.00198979      -0.01957980       0.13217422
Cu       0.00000000       5.00605995      11.76991004  F      -0.07385571       0.03753037       0.05936571
Cu       2.50302998       5.00605995      11.76991004  F       0.03813918       0.01337304       0.06751820
Cu       5.00605995       5.00605995      11.76991004  F       0.01551245      -0.02595345       0.17259714
Cu       7.50909005       5.00605995      11.76991004  F      -0.05490580      -0.02874082       0.21074533
Cu      10.01212003       5.00605995      11.76991004  F      -0.02567212      -0.01577330       0.12938413
Cu       0.00000000       7.50909005      11.76991004  F      -0.06219992      -0.00148458       0.10184442
Cu       2.50302998       7.50909005      11.76991004  F       0.05040709       0.04328360       0.06094613
Cu       5.00605995       7.50909005      11.76991004  F      -0.00555717       0.06645846       0.07886203
Cu       7.50909005       7.50909005      11.76991004  F      -0.04038042       0.03756071       0.10765835
Cu      10.01212003       7.50909005      11.76991004  F       0.06157763       0.08945943       0.04821295
Cu       0.00000000      10.01212003      11.76991004  F      -0.00500320      -0.04086247       0.12953143
Cu       2.50302998      10.01212003      11.76991004  F       0.03284885      -0.04289586       0.13355439
Cu       5.00605995      10.01212003      11.76991004  F       0.08663172      -0.03629900       0.15789667
Cu       7.50909005      10.01212003      11.76991004  F       0.01754834      -0.03045964       0.13745442
Cu      10.01212003      10.01212003      11.76991004  F      -0.06976861      -0.02919770       0.16306804
Cu       1.25889330       1.23706211      13.58130388  T      -0.00339282      -0.02082204      -0.00709494
Cu       3.77290069       1.26981502      13.59820850  T      -0.00787273      -0.00360452      -0.01479967
Cu       6.29114070       1.26688985      13.63296205  T       0.00447065      -0.00444673       0.00195449
Cu       8.74637681       1.27008935      13.63074542  T      -0.00008169      -0.00961139       0.00180857
Cu      11.25944719       1.27709008      13.60172377  T       0.01390022      -0.01391649      -0.01615862
Cu       1.23644349       3.74655979      13.56782012  T       0.00309500       0.00052076      -0.00843337
Cu       3.75580549       3.77370191      13.60119656  T      -0.01567361       0.00326557      -0.00617531
Cu       6.27595219       3.75742019      13.61039336  T       0.00347633      -0.01138755      -0.03207217
Cu       8.72490982       3.75943901      13.60282651  T      -0.00966613      -0.01603819      -0.03506340
Cu      11.22772716       3.78501561      13.60012444  T      -0.00370945       0.00281029      -0.00168077
Cu       1.24285713       6.26011013      13.57470487  T      -0.00373183       0.00280679      -0.00339750
Cu       3.75261025       6.28961110      13.58402239  T      -0.01785511       0.02473145      -0.01200813
Cu       6.26672952       6.24984746      13.58627066  T      -0.00555890       0.00761259      -0.05790229
Cu       8.73984528       6.25916649      13.55802550  T       0.00748653       0.00035227      -0.05691113
Cu      11.23792088       6.28225670      13.60445823  T      -0.00713569       0.00874700       0.00656832
Cu       1.26576462       8.76312196      13.59373855  T      -0.00031263       0.01748716      -0.00212073
Cu       3.78708999       8.76567217      13.62056661  T      -0.01094491       0.00930158      -0.01671659
Cu       6.28049219       8.73462471      13.61659095  T      -0.00596411       0.00015084       0.00009377
Cu       8.76322396       8.73831943      13.61713284  T       0.00236099       0.00038971       0.00324668
Cu      11.26165023       8.76510361      13.61294635  T       0.01478991       0.00842877      -0.01022709
Cu       1.25155641      11.25555047      13.60942425  T      -0.00935266      -0.00387775      -0.01104324
Cu       3.74655116      11.27032299      13.58242434  T      -0.01631717       0.00399026      -0.00362406
Cu       6.26847939      11.28138188      13.59554743  T       0.00027021      -0.00272535      -0.00216233
Cu       8.75085586      11.28210350      13.59966937  T      -0.00061882      -0.00530738       0.00351065
Cu      11.27277921      11.27245619      13.58302418  T       0.02156154       0.00491158      -0.00042741
Cu       0.01122810       0.00019161      15.39910664  T      -0.01196181       0.00835023      -0.09037390
Cu       2.50195542       0.00013754      15.39534663  T       0.00436878      -0.00202092      -0.08444168
Cu       4.97606463       0.01951588      15.36388891  T       0.00795362       0.01593059      -0.05194893
Cu       7.51166166      12.41814229      15.49569136  T      -0.00291030      -0.01320495      -0.05281707
Cu      10.05180821       0.01700184      15.36372870  T      -0.01151481       0.01495170      -0.06095568
Cu       0.04562987       2.49798424      15.36722220  T       0.00833082       0.00583837      -0.04900479
Cu       2.49387577       2.49802391      15.36654492  T      -0.00562584       0.01032579      -0.05030898
Cu       4.95129652       2.48318007      15.42391473  T      -0.04416169      -0.06606295      -0.09462608
Cu       7.53563945       2.36297277      15.61769438  T       0.00550631      -0.01015243      -0.03864752
Cu      10.10452241       2.49755885      15.42407621  T       0.04453025      -0.05850634      -0.08505915
Cu      12.48804556       5.00267823      15.34923002  T      -0.00111178       0.00529006      -0.05606880
Cu       2.38771322       4.99912155      15.37150993  T      -0.01728121      -0.01138591      -0.04794211
Pd       4.87904003       5.11290144      15.52318658  T      -0.01434444       0.01860686      -0.07405428
Y        7.51552084       4.98653343      17.26362560  T      -0.00214660      -0.06871166       0.09608934
Cu      10.01045664       5.13322480      15.42778206  T       0.09418085       0.05035823      -0.13496666
Cu       0.05202149       7.50554926      15.38219772  T       0.00798198      -0.01921517      -0.05429814
Cu       2.53717094       7.49124382      15.38185781  T      -0.00003461      -0.02088714      -0.05681327
Cu       5.01648820       7.66355183      15.51368582  T      -0.03926180       0.06646588      -0.08807375
Cu       7.54575570       7.48670307      15.50139035  T       0.01170435       0.08680162      -0.15065168
Cu      10.08855495       7.62334877      15.48451585  T       0.05080537       0.04656235      -0.07956571
Cu      12.51092876      10.00191254      15.40232300  T      -0.00451239       0.00019449      -0.08555944
Cu       2.51019703       9.99789981      15.40194943  T      -0.00115258      -0.00119986      -0.08316078
Cu       5.00932966      10.09491753      15.37783053  T       0.01912713       0.01352032      -0.03706045
Cu       7.50603435       9.98487441      15.36271986  T      -0.00044768      -0.01933854      -0.06683949
Cu      10.01186985      10.07598485      15.37318568  T      -0.01754479       0.01626536      -0.04440561
O        6.03325120       3.62579845      16.50530104  T       0.01847878      -0.03407943       0.02347451
O        6.15006589       6.61018188      16.67101903  T      -0.09894169      -0.03692029       0.13686910
O        8.96261501       6.52382544      16.57720320  T       0.10254346       0.02875459       0.12327244
O        9.02874145       3.75963387      16.36901523  T      -0.04433366      -0.12159240       0.02152654
C        7.59211633       1.52566306      17.42427000  T       0.02660285       0.29530292       0.42059705
O        7.66300842       2.57894940      18.44433919  T      -0.01141815      -0.40919620      -0.56235508
O        7.50347700       0.37634156      17.84430244  T       0.00289144       0.04725214       0.09892931
H        7.57602998       2.11899823      19.30250026  T      -0.00252431      -0.15717302       0.29403711
108
Lattice="12.51515363 0.0 0.0 0.0 12.51515363 0.0 0.0 0.0 25.30973" Properties=species:S:1:pos:R:3:move_mask:L:1:forces:R:3 energy=-444.5461939 stress="0.008144462839237056 -2.6665356019655135e-05 -5.3878391982088276e-05 -2.6665356019655135e-05 0.00804786801442759 0.0006000567774606239 -5.3878391982088276e-05 0.0006000567774606239 0.0028543200297833234" free_energy=-444.54850268 pbc="T T T"
Cu       1.25151999       1.25151999      10.00000011  F      -0.00044031      -0.01867360      -0.07850503
Cu       3.75454997       1.25151999      10.00000011  F       0.00845730       0.00073657      -0.07140922
Cu       6.25757994       1.25151999      10.00000011  F      -0.01495182       0.01271120      -0.04646420
Cu       8.76061004       1.25151999      10.00000011  F       0.01193417       0.00477343      -0.03940647
Cu      11.26364002       1.25151999      10.00000011  F      -0.00663035      -0.00259251      -0.07386883
Cu       1.25151999       3.75454997      10.00000011  F      -0.00057671       0.00114499      -0.06691042
Cu       3.75454997       3.75454997      10.00000011  F       0.01926632      -0.00621854      -0.05855356
Cu       6.25757994       3.75454997      10.00000011  F      -0.02172677      -0.00842357      -0.07906375
Cu       8.76061004       3.75454997      10.00000011  F       0.02143091      -0.00504741      -0.07765311
Cu      11.26364002       3.75454997      10.00000011  F      -0.01697229       0.00810295      -0.05707290
Cu       1.25151999       6.25757994      10.00000011  F      -0.00142208       0.00079157      -0.07475209
Cu       3.75454997       6.25757994      10.00000011  F       0.01907042       0.01551952      -0.06614650
Cu       6.25757994       6.25757994      10.00000011  F      -0.02080883       0.01496183      -0.08847814
Cu       8.76061004       6.25757994      10.00000011  F       0.02080176       0.01551318      -0.08323770
Cu      11.26364002       6.25757994      10.00000011  F      -0.01568622       0.00243377      -0.07061215
Cu       1.25151999       8.76061004      10.00000011  F      -0.00146136       0.00714981      -0.07719941
Cu       3.75454997       8.76061004      10.00000011  F       0.00259032      -0.01773181      -0.06885006
Cu       6.25757994       8.76061004      10.00000011  F      -0.00610977      -0.02280729      -0.05782139
Cu       8.76061004       8.76061004      10.00000011  F       0.00782706      -0.01733762      -0.05168752
Cu      11.26364002       8.76061004      10.00000011  F      -0.00427045      -0.01590017      -0.07128548
Cu       1.25151999      11.26364002      10.00000011  F      -0.00420316       0.00414986      -0.01540518
Cu       3.75454997      11.26364002      10.00000011  F      -0.00790633       0.00597249      -0.07008408
Cu       6.25757994      11.26364002      10.00000011  F       0.00342662       0.00913932      -0.06808168
Cu       8.76061004      11.26364002      10.00000011  F      -0.00702206       0.00551939      -0.07013456
Cu      11.26364002      11.26364002      10.00000011  F       0.01394738       0.00651319      -0.06972822
Cu       0.00000000       0.00000000      11.76991004  F      -0.02049416       0.04270783       0.11403907
Cu       2.50302998       0.00000000      11.76991004  F       0.03518775       0.01569119       0.09626178
Cu       5.00605995       0.00000000      11.76991004  F       0.06614849       0.06823424       0.11894533
Cu       7.50909005       0.00000000      11.76991004  F       0.01212479       0.06534346       0.09191777
Cu      10.01212003       0.00000000      11.76991004  F      -0.05384569       0.06828219       0.13720277
Cu       0.00000000       2.50302998      11.76991004  F      -0.08923485       0.02401984       0.07976541
Cu       2.50302998       2.50302998      11.76991004  F       0.06677367       0.03021277       0.07944901
Cu       5.00605995       2.50302998      11.76991004  F       0.01772915      -0.01299418       0.14512852
Cu       7.50909005       2.50302998      11.76991004  F      -0.02229413      -0.00436254       0.24269759
Cu      10.01212003       2.50302998      11.76991004  F      -0.00216547      -0.01982012       0.13226982
Cu       0.00000000       5.00605995      11.76991004  F      -0.07363823       0.03768359       0.05937207
Cu       2.50302998       5.00605995      11.76991004  F       0.03874225       0.01365876       0.06705935
Cu       5.00605995       5.00605995      11.76991004  F       0.01502642      -0.02601532       0.17198316
Cu       7.50909005       5.00605995      11.76991004  F      -0.05568948      -0.02890274       0.20924895
Cu      10.01212003       5.00605995      11.76991004  F      -0.02559165      -0.01602953       0.12869138
Cu       0.00000000       7.50909005      11.76991004  F      -0.06180103      -0.00161440       0.10166332
Cu       2.50302998       7.50909005      11.76991004  F       0.05057953       0.04335667       0.06014584
Cu       5.00605995       7.50909005      11.76991004  F      -0.00571728       0.06686609       0.07783440
Cu       7.50909005       7.50909005      11.76991004  F      -0.04100044       0.03820536       0.10643155
Cu      10.01212003       7.50909005      11.76991004  F       0.06162024       0.08999308       0.04768598
Cu       0.00000000      10.01212003      11.76991004  F      -0.00455872      -0.04076062       0.12846488
Cu       2.50302998      10.01212003      11.76991004  F       0.03322856      -0.04269489       0.13235687
Cu       5.00605995      10.01212003      11.76991004  F       0.08665545      -0.03635781       0.15744951
Cu       7.50909005      10.01212003      11.76991004  F       0.01710503      -0.03073223       0.13753778
Cu      10.01212003      10.01212003      11.76991004  F      -0.07001163      -0.02909833       0.16329569
Cu       1.25886063       1.23686124      13.58123529  T      -0.00250261      -0.01851461      -0.00976930
Cu       3.77282472       1.26978023      13.59806550  T      -0.00789052      -0.00342014      -0.01813737
Cu       6.29118388       1.26684693      13.63298103  T       0.00551333      -0.00424195       0.00028869
Cu       8.74637593       1.26999662      13.63076288  T      -0.00171157      -0.00914105       0.00028938
Cu      11.25958135       1.27695579      13.60156786  T       0.01358635      -0.01275074      -0.01928783
Cu       1.23647340       3.74656480      13.56773887  T       0.00295743       0.00000464      -0.01081012
Cu       3.75565431       3.77373345      13.60113683  T      -0.01402302       0.00405116      -0.00841220
Cu       6.27598573       3.75731031      13.61008382  T       0.00206708      -0.01006098      -0.03101005
Cu       8.72481645       3.75928420      13.60248812  T      -0.00919779      -0.01468988      -0.03313705
Cu      11.22769137       3.78504264      13.60010825  T      -0.00349751       0.00233001      -0.00452493
Cu       1.24282109       6.26013729      13.57467197  T      -0.00317615       0.00291848      -0.00616201
Cu       3.75243804       6.28984977      13.58390648  T      -0.01603772       0.02265321      -0.01402002
Cu       6.26667596       6.24992092      13.58571207  T      -0.00563936       0.00684104      -0.05463373
Cu       8.73991749       6.25916987      13.55747628  T       0.00583781      -0.00008978      -0.05370120
Cu      11.23785204       6.28234105      13.60452176  T      -0.00548832       0.00971475       0.00110683
Cu       1.26576161       8.76329066      13.59371804  T       0.00026160       0.01528658      -0.00478548
Cu       3.78698437       8.76576191      13.62040538  T      -0.00998477       0.00964079      -0.01926773
Cu       6.28043462       8.73462621      13.61659171  T      -0.00637227       0.00021662      -0.00365228
Cu       8.76324674       8.73832318      13.61716422  T       0.00281129       0.00039672      -0.00062086
Cu      11.26179291       8.76518496      13.61284765  T       0.01382175       0.00851034      -0.01305882
Cu       1.25146618      11.25551305      13.60931770  T      -0.00818793      -0.00372680      -0.01388173
Cu       3.74639372      11.27036153      13.58238941  T      -0.01408455       0.00357695      -0.00598133
Cu       6.26848202      11.28135559      13.59552643  T      -0.00030004      -0.00256215      -0.00496353
Cu       8.75084985      11.28205231      13.59970329  T      -0.00061798      -0.00498435       0.00045700
Cu      11.27298734      11.27250350      13.58302013  T       0.01888678       0.00422272      -0.00316787
Cu       0.01111271       0.00027220      15.39823472  T      -0.01155039       0.00831364      -0.08585959
Cu       2.50199760       0.00011802      15.39453191  T       0.00432703      -0.00150238      -0.08097427
Cu       4.97614135       0.01966957      15.36338753  T       0.00870429       0.01378207      -0.04932207
Cu       7.51163351      12.41801489      15.49518187  T      -0.00300969      -0.00916766      -0.03880877
Cu      10.05169707       0.01714614      15.36314050  T      -0.01234991       0.01305368      -0.05749168
Cu       0.04571022       2.49804056      15.36674917  T       0.00876503       0.00613551      -0.04710360
Cu       2.49382145       2.49812353      15.36605948  T      -0.00598892       0.00972440      -0.04844560
Cu       4.95087050       2.48254254      15.42300181  T      -0.03442410      -0.05411915      -0.08521861
Cu       7.53569264       2.36287477      15.61732157  T       0.00584066      -0.01537604      -0.02694165
Cu      10.10495205       2.49699442      15.42325567  T       0.03811807      -0.05098958      -0.07906021
Cu      12.48803479       5.00272929      15.34868916  T       0.00121488       0.00444650      -0.05348606
Cu       2.38754652       4.99901167      15.37104752  T      -0.01560558      -0.01081345      -0.04589164
Pd       4.87890161       5.11308091      15.52247209  T      -0.00423148       0.01623162      -0.06243523
Y        7.51550006       4.98587038      17.26455270  T      -0.00095620      -0.03201029       0.06377558
Cu      10.01136536       5.13371064      15.42647988  T       0.07337114       0.03811487      -0.11452504
Cu       0.05209846       7.50536379      15.38167381  T       0.00903857      -0.01809480      -0.05170661
Cu       2.53717056       7.49104220      15.38130960  T      -0.00102583      -0.01997738      -0.05460611
Cu       5.01610937       7.66419310      15.51283592  T      -0.02874343       0.05360710      -0.07640946
Cu       7.54586858       7.48754058      15.49993681  T       0.00916538       0.06753877      -0.12978247
Cu      10.08904517       7.62379807      15.48374795  T       0.04144505       0.03883185      -0.06931528
Cu      12.51088534      10.00191442      15.40149765  T      -0.00471112      -0.00023059      -0.08122634
Cu       2.51018589       9.99788829      15.40114686  T      -0.00033485      -0.00168345      -0.07961319
Cu       5.00951413      10.09504794      15.37747290  T       0.01799122       0.01439363      -0.03610015
Cu       7.50603010       9.98468781      15.36207497  T      -0.00077982      -0.01677011      -0.06340213
Cu      10.01170064      10.07614179      15.37275719  T      -0.01646244       0.01645149      -0.04261628
O        6.03342954       3.62546955      16.50552756  T       0.01168386      -0.03331252       0.01932201
O        6.14911123       6.60982558      16.67233944  T      -0.09468205      -0.03465241       0.12438932
O        8.96360446       6.52410291      16.57839251  T       0.09698246       0.02705801       0.11326293
O        9.02831369       3.75846070      16.36922303  T      -0.03537641      -0.10602956       0.01377395
C        7.59237302       1.52851226      17.42832817  T       0.01915096       0.21012627       0.31299201
O        7.66289828       2.57500124      18.43891329  T      -0.03123057      -0.46410843      -0.24727394
O        7.50350491       0.37679748      17.84525712  T       0.00325936       0.05394250       0.09418835
H        7.57600570       2.11748177      19.30533748  T       0.02193120      -0.04436865       0.06226926
108
Lattice="12.51515363 0.0 0.0 0.0 12.51515363 0.0 0.0 0.0 25.30973" Properties=species:S:1:pos:R:3:move_mask:L:1:forces:R:3 energy=-444.55639449999995 stress="0.008126196401180192 -2.8336938269221813e-05 -5.564759767589289e-05 -2.8336938269221813e-05 0.007970302745788263 0.0005543096924960447 -5.564759767589289e-05 0.0005543096924960447 0.0028035714363109" free_energy=-444.55865894 pbc="T T T"
Cu       1.25151999       1.25151999      10.00000011  F      -0.00038148      -0.01863036      -0.07864592
Cu       3.75454997       1.25151999      10.00000011  F       0.00852037       0.00054652      -0.07165919
Cu       6.25757994       1.25151999      10.00000011  F      -0.01482618       0.01243500      -0.04677870
Cu       8.76061004       1.25151999      10.00000011  F       0.01154579       0.00462873      -0.03971813
Cu      11.26364002       1.25151999      10.00000011  F      -0.00657651      -0.00261437      -0.07409603
Cu       1.25151999       3.75454997      10.00000011  F      -0.00063970       0.00104293      -0.06738392
Cu       3.75454997       3.75454997      10.00000011  F       0.01924158      -0.00630792      -0.05902285
Cu       6.25757994       3.75454997      10.00000011  F      -0.02159647      -0.00853594      -0.07977407
Cu       8.76061004       3.75454997      10.00000011  F       0.02129566      -0.00504587      -0.07825786
Cu      11.26364002       3.75454997      10.00000011  F      -0.01692899       0.00823867      -0.05719142
Cu       1.25151999       6.25757994      10.00000011  F      -0.00148185       0.00047427      -0.07518340
Cu       3.75454997       6.25757994      10.00000011  F       0.01906398       0.01523554      -0.06682186
Cu       6.25757994       6.25757994      10.00000011  F      -0.02075994       0.01473625      -0.08919247
Cu       8.76061004       6.25757994      10.00000011  F       0.02081265       0.01522978      -0.08375766
Cu      11.26364002       6.25757994      10.00000011  F      -0.01573941       0.00200744      -0.07089560
Cu       1.25151999       8.76061004      10.00000011  F      -0.00140961       0.00699311      -0.07726292
Cu       3.75454997       8.76061004      10.00000011  F       0.00268169      -0.01772538      -0.06924628
Cu       6.25757994       8.76061004      10.00000011  F      -0.00612357      -0.02280801      -0.05821773
Cu       8.76061004       8.76061004      10.00000011  F       0.00763999      -0.01745637      -0.05199679
Cu      11.26364002       8.76061004      10.00000011  F      -0.00430782      -0.01604828      -0.07152871
Cu       1.25151999      11.26364002      10.00000011  F      -0.00409715       0.00394395      -0.01564636
Cu       3.75454997      11.26364002      10.00000011  F      -0.00769864       0.00587032      -0.07003325
Cu       6.25757994      11.26364002      10.00000011  F       0.00335557       0.00914588      -0.06822345
Cu       8.76061004      11.26364002      10.00000011  F      -0.00733731       0.00548894      -0.07029660
Cu      11.26364002      11.26364002      10.00000011  F       0.01390341       0.00632200      -0.06987682
Cu       0.00000000       0.00000000      11.76991004  F      -0.02034179       0.04240991       0.11226809
Cu       2.50302998       0.00000000      11.76991004  F       0.03523662       0.01532973       0.09496169
Cu       5.00605995       0.00000000      11.76991004  F       0.06635626       0.06784214       0.11845281
Cu       7.50909005       0.00000000      11.76991004  F       0.01200147       0.06479815       0.09107699
Cu      10.01212003       0.00000000      11.76991004  F      -0.05413649       0.06773412       0.13679082
Cu       0.00000000       2.50302998      11.76991004  F      -0.08912583       0.02418037       0.07909773
Cu       2.50302998       2.50302998      11.76991004  F       0.06641853       0.02990843       0.07847217
Cu       5.00605995       2.50302998      11.76991004  F       0.01758578      -0.01398536       0.14431220
Cu       7.50909005       2.50302998      11.76991004  F      -0.02238218      -0.00592514       0.24063611
Cu      10.01212003       2.50302998      11.76991004  F      -0.00197930      -0.02060770       0.13170640
Cu       0.00000000       5.00605995      11.76991004  F      -0.07384721       0.03775378       0.05897768
Cu       2.50302998       5.00605995      11.76991004  F       0.03816298       0.01381471       0.06599343
Cu       5.00605995       5.00605995      11.76991004  F       0.01380128      -0.02654178       0.17027093
Cu       7.50909005       5.00605995      11.76991004  F      -0.05574258      -0.02976409       0.20589684
Cu      10.01212003       5.00605995      11.76991004  F      -0.02444340      -0.01668333       0.12685092
Cu       0.00000000       7.50909005      11.76991004  F      -0.06160767      -0.00186199       0.10108520
Cu       2.50302998       7.50909005      11.76991004  F       0.04955686       0.04355680       0.05895169
Cu       5.00605995       7.50909005      11.76991004  F      -0.00629766       0.06801593       0.07556068
Cu       7.50909005       7.50909005      11.76991004  F      -0.04095242       0.03980000       0.10351637
Cu      10.01212003       7.50909005      11.76991004  F       0.06250545       0.09088981       0.04598779
Cu       0.00000000      10.01212003      11.76991004  F      -0.00448508      -0.04090631       0.12704613
Cu       2.50302998      10.01212003      11.76991004  F       0.03327033      -0.04242231       0.13109973
Cu       5.00605995      10.01212003      11.76991004  F       0.08667049      -0.03591791       0.15664186
Cu       7.50909005      10.01212003      11.76991004  F       0.01702989      -0.03053697       0.13689793
Cu      10.01212003      10.01212003      11.76991004  F      -0.07009505      -0.02886515       0.16301224