108
Lattice="12.51515363 0.0 0.0 0.0 12.51515363 0.0 0.0 0.0 25.30973" Properties=species:S:1:pos:R:3:move_mask:L:1:forces:R:3 energy=-445.2733228 stress="0.008452430483749074 -1.4826935864373339e-05 3.299899606174556e-05 -1.4826935864373339e-05 0.008231181293492509 0.0001371590230110041 3.299899606174556e-05 0.0001371590230110041 0.003077249128462629" free_energy=-445.2742389 pbc="T T T"
Cu       1.25151999       1.25151999      10.00000011  F       0.00003454      -0.02581121      -0.05818675
Cu       3.75454997       1.25151999      10.00000011  F      -0.00336516      -0.00488453      -0.05223747
Cu       6.25757994       1.25151999      10.00000011  F      -0.00742513       0.00981191      -0.05127524
Cu       8.76061004       1.25151999      10.00000011  F       0.00430085       0.01152294      -0.05190159
Cu      11.26364002       1.25151999      10.00000011  F       0.00221607      -0.00275848      -0.07295321
Cu       1.25151999       3.75454997      10.00000011  F       0.00449456       0.00695789      -0.06038235
Cu       3.75454997       3.75454997      10.00000011  F       0.00384151      -0.01114515      -0.04530169
Cu       6.25757994       3.75454997      10.00000011  F      -0.00767531      -0.01005675      -0.07721570
Cu       8.76061004       3.75454997      10.00000011  F       0.01826844      -0.01873981      -0.07152339
Cu      11.26364002       3.75454997      10.00000011  F      -0.01568211       0.00536842      -0.05889307
Cu       1.25151999       6.25757994      10.00000011  F       0.00260848      -0.00814861      -0.06731941
Cu       3.75454997       6.25757994      10.00000011  F       0.00663069       0.01063013      -0.05436994
Cu       6.25757994       6.25757994      10.00000011  F      -0.00724089       0.01989582      -0.07038664
Cu       8.76061004       6.25757994      10.00000011  F       0.01857925       0.02930853      -0.08454784
Cu      11.26364002       6.25757994      10.00000011  F      -0.01740973       0.00846299      -0.05061198
Cu       1.25151999       8.76061004      10.00000011  F       0.00271631       0.02204081      -0.07190832
Cu       3.75454997       8.76061004      10.00000011  F      -0.00275351       0.00280795      -0.07368162
Cu       6.25757994       8.76061004      10.00000011  F      -0.00219845      -0.02262048      -0.05144111
Cu       8.76061004       8.76061004      10.00000011  F       0.01739611      -0.02416011      -0.04962300
Cu      11.26364002       8.76061004      10.00000011  F      -0.01639390      -0.00999709      -0.07739875
Cu       1.25151999      11.26364002      10.00000011  F       0.00011318       0.00502674      -0.02974101
Cu       3.75454997      11.26364002      10.00000011  F      -0.01638904       0.00204263      -0.06658817
Cu       6.25757994      11.26364002      10.00000011  F      -0.00463728       0.00526972      -0.07455321
Cu       8.76061004      11.26364002      10.00000011  F      -0.00303130       0.00133453      -0.05682219
Cu      11.26364002      11.26364002      10.00000011  F       0.02272900      -0.00164338      -0.06844677
Cu       0.00000000       0.00000000      11.76991004  F       0.02333520       0.05386603       0.14053880
Cu       2.50302998       0.00000000      11.76991004  F       0.02556372       0.05302783       0.14302913
Cu       5.00605995       0.00000000      11.76991004  F       0.00523361       0.09133710       0.12929416
Cu       7.50909005       0.00000000      11.76991004  F       0.01223182       0.07121972       0.12020875
Cu      10.01212003       0.00000000      11.76991004  F      -0.02872869       0.06922802       0.13886833
Cu       0.00000000       2.50302998      11.76991004  F      -0.05197275       0.01159657       0.13062145
Cu       2.50302998       2.50302998      11.76991004  F       0.06996839      -0.00222494       0.10102046
Cu       5.00605995       2.50302998      11.76991004  F      -0.04012960      -0.05092053       0.11860218
Cu       7.50909005       2.50302998      11.76991004  F      -0.02275887      -0.02755863       0.12150839
Cu      10.01212003       2.50302998      11.76991004  F       0.04251502      -0.05459555       0.07216999
Cu       0.00000000       5.00605995      11.76991004  F      -0.07103501      -0.02038152       0.09891315
Cu       2.50302998       5.00605995      11.76991004  F       0.07688107       0.01088195       0.08897409
Cu       5.00605995       5.00605995      11.76991004  F      -0.05589104      -0.00713186       0.16402748
Cu       7.50909005       5.00605995      11.76991004  F      -0.03914621       0.01781235       0.15385403
Cu      10.01212003       5.00605995      11.76991004  F       0.00593108       0.01837431       0.08349028
Cu       0.00000000       7.50909005      11.76991004  F      -0.10525448       0.00030594       0.10495964
Cu       2.50302998       7.50909005      11.76991004  F       0.08323166       0.01535014       0.09731457
Cu       5.00605995       7.50909005      11.76991004  F       0.01387900       0.04228849       0.09985302
Cu       7.50909005       7.50909005      11.76991004  F      -0.02787294       0.01510424       0.13979051
Cu      10.01212003       7.50909005      11.76991004  F       0.03959430       0.04638613       0.08505261
Cu       0.00000000      10.01212003      11.76991004  F       0.01177009       0.00006651       0.14780992
Cu       2.50302998      10.01212003      11.76991004  F       0.03527100       0.00940174       0.10403688
Cu       5.00605995      10.01212003      11.76991004  F       0.02617062      -0.04168029       0.12292283
Cu       7.50909005      10.01212003      11.76991004  F       0.02825410      -0.08143387       0.12926737
Cu      10.01212003      10.01212003      11.76991004  F      -0.05210715      -0.08644953       0.14424997
Cu       1.28370196       1.24716760      13.61170061  T       0.00639042      -0.01336231       0.00135143
Cu       3.76029255       1.26669349      13.63657324  T      -0.00522570      -0.01095425      -0.01556556
Cu       6.27821593       1.27322427      13.61488381  T      -0.00181359      -0.00567742      -0.00292236
Cu       8.75728402       1.28080883      13.62007762  T      -0.00362848      -0.01314544      -0.00571691
Cu      11.25814099       1.25953057      13.60455263  T       0.01541265      -0.01636283      -0.01243890
Cu       1.25239418       3.74943853      13.58215757  T       0.01057792      -0.00412215       0.00777385
Cu       3.75431030       3.74849389      13.61361023  T      -0.02777391      -0.01531641      -0.00015384
Cu       6.27052086       3.77204715      13.58331347  T       0.00616547       0.00533546      -0.04680465
Cu       8.74182467       3.76496596      13.56899651  T      -0.00536232       0.00673086      -0.03624370
Cu      11.22184316       3.76967265      13.60644479  T       0.00423548       0.00148063       0.01249619
Cu       1.23581936       6.27372612      13.56384396  T      -0.00333954      -0.00150527      -0.01161318
Cu       3.77077449       6.27135487      13.60173262  T      -0.02534683       0.00334652      -0.00892474
Cu       6.26991075       6.24819320      13.59292003  T       0.00663693      -0.00437033      -0.04814412
Cu       8.74118602       6.24507956      13.57260492  T      -0.00375165      -0.00541679      -0.04506246
Cu      11.22266891       6.25411037      13.61631558  T       0.00343568       0.00103218       0.00502187
Cu       1.25976660       8.78226489      13.58262530  T      -0.00643447       0.01246130      -0.00315784
Cu       3.78702767       8.76375473      13.60687531  T      -0.01435746       0.00156180      -0.00888767
Cu       6.28487387       8.73184058      13.62496291  T      -0.00511042       0.00065392      -0.00174730
Cu       8.75944939       8.72718269      13.62719345  T       0.00085507       0.01957539      -0.00382026
Cu      11.25493798       8.74439278      13.61557781  T       0.02550062       0.02173005      -0.02758751
Cu       1.26438419      11.28533416      13.62514691  T      -0.00670089       0.00261733      -0.02322634
Cu       3.72968111      11.28437400      13.59764460  T      -0.01043140       0.01564920       0.00344934
Cu       6.25138594      11.25975669      13.57541557  T      -0.01445298       0.01188773       0.00236598
Cu       8.76365123      11.26116803      13.58151066  T      -0.00218516      -0.00422317      -0.01125074
Cu      11.27587996      11.25881968      13.58548606  T       0.02826699      -0.00183569      -0.00379701
Cu      12.49268868       0.00439657      15.39184199  T      -0.01484833       0.00565914      -0.06871957
Cu       2.50441966      12.46015404      15.53703986  T       0.00694117      -0.01977768      -0.08302954
Cu       5.01955980      12.49032544      15.37544685  T       0.02038410      -0.00734008      -0.05210659
Cu       7.51069086      12.49598717      15.36736976  T      -0.00721973       0.00988726      -0.06704359
Cu      10.00832093      12.49238806      15.37388145  T      -0.01055449       0.00932511      -0.05573085
Cu       0.00545410       2.51417610      15.33144462  T       0.01399481       0.01204394      -0.04753072
Cu       2.51617264       2.61882068      15.44913613  T      -0.01167211       0.04198105      -0.07591799
Cu       5.04740439       2.44549356      15.42959373  T      -0.03606286      -0.06523805      -0.10433953
Cu       7.55646591       2.51048675      15.49887836  T       0.03527959      -0.07246335      -0.11785998
Cu      10.07561228       2.44940792      15.46431969  T       0.05155166      -0.05050534      -0.08111692
Cu      12.48447974       5.01266395      15.34873623  T      -0.00523046      -0.00067645      -0.06489370
Cu       2.40127977       5.08075026      15.36321821  T      -0.02585358       0.00151067      -0.05381088
Pd       4.91934646       5.01030109      15.53781080  T       0.01889101      -0.00031973      -0.05888208
Y        7.48477861       5.00850629      17.25137494  T      -0.02375088      -0.00085964       0.07836486
Cu       9.97035032       5.00341850      15.46745203  T       0.09732676       0.01533713      -0.14509918
Cu       0.05546829       7.51638513      15.37566958  T      -0.00373158      -0.01793934      -0.05393155
Cu       2.52006548       7.52801421      15.37050817  T       0.01040116      -0.01257485      -0.05866307
Cu       4.99849554       7.59685031      15.48597166  T      -0.06103585       0.06417140      -0.08648154
Cu       7.54436889       7.50036311      15.50012410  T       0.01855853       0.06583966      -0.13047211
Cu      10.09281686       7.55406738      15.47326061  T       0.05379538       0.05543457      -0.08441196
Cu      12.51488293      10.01173168      15.39716463  T      -0.00431263      -0.00634021      -0.08768318
Cu       2.50651132       9.98242157      15.39514036  T       0.00805705      -0.02372084      -0.06844962
Cu       5.00358370      10.04874675      15.37422870  T       0.00981138       0.00701505      -0.05306819
Cu       7.50883512      10.03125182      15.37004475  T      -0.00553852      -0.01022789      -0.05928254
Cu      10.01746487      10.03121928      15.38049058  T      -0.01027592      -0.00879374      -0.06389766
O        6.14760241       3.42793725      16.66116469  T      -0.10585044       0.03983838       0.12116464
O        6.13782119       6.59240135      16.66649239  T      -0.09195296      -0.02736502       0.12388041
O        8.97160002       6.42981587      16.54643973  T       0.06909363       0.08997514       0.11646864
O        8.98509698       3.59286870      16.55285676  T       0.04602174      -0.10238178       0.10718274
C        2.55291012       0.76767677      17.29123979  T      -0.00322127      -0.13179453       0.62332931
O        2.56973036       0.06425906      18.46331465  T      -0.00805543       0.12214152      -0.78140595
O        2.55288447       2.03028319      17.40167373  T      -0.01485754      -0.29142686       0.03695475
H        2.57490676       0.73609841      19.18034766  T       0.00769309       0.14742933       0.24802205
108
Lattice="12.51515363 0.0 0.0 0.0 12.51515363 0.0 0.0 0.0 25.30973" Properties=species:S:1:pos:R:3:move_mask:L:1:forces:R:3 energy=-445.28570122 stress="0.008474352373972677 -1.3236861482481571e-05 3.0472033711003958e-05 -1.3236861482481571e-05 0.008206646539028065 0.00022562947511960103 3.0472033711003958e-05 0.00022562947511960103 0.003032565777656865" free_energy=-445.28661284 pbc="T T T"
Cu       1.25151999       1.25151999      10.00000011  F      -0.00022775      -0.02561614      -0.05778195
Cu       3.75454997       1.25151999      10.00000011  F      -0.00327257      -0.00443345      -0.05258396
Cu       6.25757994       1.25151999      10.00000011  F      -0.00708511       0.00986587      -0.05178401
Cu       8.76061004       1.25151999      10.00000011  F       0.00450911       0.01148774      -0.05252238
Cu      11.26364002       1.25151999      10.00000011  F       0.00193309      -0.00273316      -0.07307889
Cu       1.25151999       3.75454997      10.00000011  F       0.00426854       0.00713120      -0.06062827
Cu       3.75454997       3.75454997      10.00000011  F       0.00383748      -0.01093839      -0.04564190
Cu       6.25757994       3.75454997      10.00000011  F      -0.00751177      -0.00982494      -0.07761991
Cu       8.76061004       3.75454997      10.00000011  F       0.01849201      -0.01866040      -0.07186577
Cu      11.26364002       3.75454997      10.00000011  F      -0.01574669       0.00548507      -0.05923674
Cu       1.25151999       6.25757994      10.00000011  F       0.00238226      -0.00842890      -0.06741413
Cu       3.75454997       6.25757994      10.00000011  F       0.00671439       0.01048387      -0.05455562
Cu       6.25757994       6.25757994      10.00000011  F      -0.00706209       0.01988524      -0.07058674
Cu       8.76061004       6.25757994      10.00000011  F       0.01872732       0.02941941      -0.08487974
Cu      11.26364002       6.25757994      10.00000011  F      -0.01750267       0.00836507      -0.05074595
Cu       1.25151999       8.76061004      10.00000011  F       0.00246890       0.02194624      -0.07107465
Cu       3.75454997       8.76061004      10.00000011  F      -0.00247105       0.00240124      -0.07389707
Cu       6.25757994       8.76061004      10.00000011  F      -0.00174858      -0.02274434      -0.05177216
Cu       8.76061004       8.76061004      10.00000011  F       0.01744415      -0.02417900      -0.04992967
Cu      11.26364002       8.76061004      10.00000011  F      -0.01682666      -0.00998363      -0.07739960
Cu       1.25151999      11.26364002      10.00000011  F      -0.00051710       0.00504350      -0.03003299
Cu       3.75454997      11.26364002      10.00000011  F      -0.01630807       0.00191734      -0.06567831
Cu       6.25757994      11.26364002      10.00000011  F      -0.00404002       0.00510927      -0.07482259
Cu       8.76061004      11.26364002      10.00000011  F      -0.00278563       0.00119639      -0.05719510
Cu      11.26364002      11.26364002      10.00000011  F       0.02250939      -0.00172260      -0.06866641
Cu       0.00000000       0.00000000      11.76991004  F       0.02312682       0.05410776       0.13976356
Cu       2.50302998       0.00000000      11.76991004  F       0.02517595       0.05325231       0.14292200
Cu       5.00605995       0.00000000      11.76991004  F       0.00544971       0.09142909       0.12917554
Cu       7.50909005       0.00000000      11.76991004  F       0.01254036       0.07094091       0.11962082
Cu      10.01212003       0.00000000      11.76991004  F      -0.02848139       0.06889268       0.13834609
Cu       0.00000000       2.50302998      11.76991004  F      -0.05193359       0.01183024       0.13077857
Cu       2.50302998       2.50302998      11.76991004  F       0.06942567      -0.00203863       0.10052602
Cu       5.00605995       2.50302998      11.76991004  F      -0.04049256      -0.05093314       0.11819790
Cu       7.50909005       2.50302998      11.76991004  F      -0.02236745      -0.02809546       0.12023463
Cu      10.01212003       2.50302998      11.76991004  F       0.04309207      -0.05475175       0.07179859
Cu       0.00000000       5.00605995      11.76991004  F      -0.07129205      -0.02055430       0.09886850
Cu       2.50302998       5.00605995      11.76991004  F       0.07654294       0.01073002       0.08863426
Cu       5.00605995       5.00605995      11.76991004  F      -0.05676661      -0.00700430       0.16331722
Cu       7.50909005       5.00605995      11.76991004  F      -0.03891989       0.01797488       0.15137935
Cu      10.01212003       5.00605995      11.76991004  F       0.00694447       0.01849230       0.08244864
Cu       0.00000000       7.50909005      11.76991004  F      -0.10551948       0.00007285       0.10458045
Cu       2.50302998       7.50909005      11.76991004  F       0.08280441       0.01523791       0.09708379
Cu       5.00605995       7.50909005      11.76991004  F       0.01361774       0.04245971       0.09947204
Cu       7.50909005       7.50909005      11.76991004  F      -0.02728928       0.01584432       0.13853955
Cu      10.01212003       7.50909005      11.76991004  F       0.03981947       0.04662069       0.08447652
Cu       0.00000000      10.01212003      11.76991004  F       0.01145203       0.00001931       0.14646288
Cu       2.50302998      10.01212003      11.76991004  F       0.03513842       0.00927303       0.10442115
Cu       5.00605995      10.01212003      11.76991004  F       0.02643951      -0.04200269       0.12317864
Cu       7.50909005      10.01212003      11.76991004  F       0.02831965      -0.08143894       0.12892884
Cu      10.01212003      10.01212003      11.76991004  F      -0.05190900      -0.08629963       0.14357559
Cu       1.28376353       1.24703857      13.61171377  T       0.00682986      -0.01278087       0.00078115
Cu       3.76024211       1.26658774      13.63642290  T      -0.00653920      -0.01177697      -0.01605109
Cu       6.27819841       1.27316958      13.61485547  T      -0.00152928      -0.00519831      -0.00651777
Cu       8.75724897       1.28068205      13.62002245  T      -0.00214537      -0.01255279      -0.00959495
Cu      11.25828967       1.25937263      13.60443267  T       0.01510546      -0.01542124      -0.01530520
Cu       1.25249618       3.74939873      13.58223249  T       0.00888275      -0.00373618       0.00387555
Cu       3.75404235       3.74834608      13.61360871  T      -0.02461367      -0.01316619      -0.00267861
Cu       6.27058031       3.77209872      13.58286169  T       0.00511556       0.00473034      -0.04348354
Cu       8.74177286       3.76503091      13.56864673  T      -0.00432217       0.00610890      -0.03372120
Cu      11.22188409       3.76968692      13.60656552  T       0.00428099       0.00031402       0.00758890
Cu       1.23578719       6.27371160      13.56373184  T      -0.00370621      -0.00087393      -0.01376685
Cu       3.77052994       6.27138716      13.60164657  T      -0.02299397       0.00230548      -0.01053312
Cu       6.26997483       6.24815103      13.59245560  T       0.00534142      -0.00357299      -0.04476259
Cu       8.74114986       6.24502737      13.57217010  T      -0.00296148      -0.00428538      -0.04214809
Cu      11.22270208       6.25412038      13.61636418  T       0.00363187       0.00247524       0.00053497
Cu       1.25970453       8.78238516      13.58259492  T      -0.00581120       0.01107268      -0.00502878
Cu       3.78688925       8.76376974      13.60678951  T      -0.01401236       0.00274530      -0.01194176
Cu       6.28482456       8.73184684      13.62494595  T      -0.00511875       0.00074545      -0.00497521
Cu       8.75945765       8.72737155      13.62715650  T       0.00192256       0.01831355      -0.00761425
Cu      11.25518403       8.74460241      13.61531155  T       0.02405352       0.02023066      -0.02977751
Cu       1.26431949      11.28535932      13.62492292  T      -0.00641922       0.00201825      -0.02478832
Cu       3.72958036      11.28452493      13.59767775  T      -0.00977586       0.01389804       0.00037757
Cu       6.25124653      11.25987146      13.57543835  T      -0.01347923       0.01047085      -0.00077598
Cu       8.76363020      11.26112723      13.58140208  T      -0.00152026      -0.00407993      -0.01314026
Cu      11.27615267      11.25880204      13.58544936  T       0.02555554      -0.00162083      -0.00597879
Cu      12.49254551       0.00445126      15.39117913  T      -0.01338648       0.00552287      -0.06606014
Cu       2.50448661      12.45996318      15.53623881  T       0.00764410      -0.00328438      -0.05026721
Cu       5.01975641      12.49025461      15.37494420  T       0.01836414      -0.00785545      -0.04988946
Cu       7.51062115      12.49608254      15.36672284  T      -0.00677750       0.00738624      -0.06383910
Cu      10.00821918      12.49247805      15.37334387  T      -0.01004061       0.00657789      -0.05404625
Cu       0.00558914       2.51429224      15.33098601  T       0.01539284       0.01059568      -0.04492643
Cu       2.51606013       2.61922579      15.44840367  T      -0.01158126       0.02983992      -0.05946819
Cu       5.04705634       2.44486405      15.42858691  T      -0.02650473      -0.05334145      -0.09060339
Cu       7.55680633       2.50978766      15.49774119  T       0.02975115      -0.05923599      -0.10319358
Cu      10.07610963       2.44892058      15.46353712  T       0.04371892      -0.04097442      -0.07208198
Cu      12.48442930       5.01265744      15.34811007  T      -0.00282508      -0.00084776      -0.06197000
Cu       2.40103035       5.08076490      15.36269910  T      -0.02338919       0.00207323      -0.05107997
Pd       4.91952868       5.01029808      15.53724259  T       0.02054560      -0.00004271      -0.05052985
Y        7.48454946       5.00849803      17.25213119  T      -0.01375041       0.00013773       0.06467206
Cu       9.97128934       5.00356656      15.46605214  T       0.08036745       0.01394597      -0.12680824
Cu       0.05543224       7.51621205      15.37514921  T      -0.00187948      -0.01696923      -0.05225399
Cu       2.52016585       7.52789282      15.36994199  T       0.00730204      -0.01206000      -0.05653479
Cu       4.99790658       7.59746944      15.48513720  T      -0.04876979       0.05201357      -0.07483986
Cu       7.54454798       7.50099838      15.49886520  T       0.01504679       0.05215671      -0.11467927
Cu      10.09333586       7.55460228      15.47244614  T       0.04318166       0.04486497      -0.07398119
Cu      12.51484125      10.01167048      15.39631852  T      -0.00394371      -0.00607363      -0.08389297
Cu       2.50658903       9.98219266      15.39447977  T       0.00753238      -0.02145701      -0.06531805
Cu       5.00367832      10.04881433      15.37371668  T       0.00925485       0.00778774      -0.05100198
Cu       7.50878168      10.03115307      15.36947275  T      -0.00550058      -0.00793097      -0.05668603
Cu      10.01736575      10.03113442      15.37987403  T      -0.00941986      -0.00634213      -0.06190798
O        6.14658117       3.42832171      16.66233374  T      -0.10510941       0.03214107       0.10607856
O        6.13693386       6.59213728      16.66768751  T      -0.09126078      -0.01949725       0.10778061
O        8.97226670       6.43068392      16.54756348  T       0.06780430       0.08678747       0.10299464
O        8.98554102       3.59188088      16.55389092  T       0.04638603      -0.09765450       0.09434387
C        2.55287908       0.76640523      17.29725414  T      -0.00888571      -0.12900747       0.20884181
O        2.56965264       0.06543748      18.45577539  T      -0.00144055       0.15444005      -0.23404026
O        2.55274117       2.02747128      17.40203009  T      -0.01513680      -0.12608613       0.06039468
H        2.57498097       0.73752088      19.18274069  T       0.00643953      -0.05850545       0.03888304
108
Lattice="12.51515363 0.0 0.0 0.0 12.51515363 0.0 0.0 0.0 25.30973" Properties=species:S:1:pos:R:3:move_mask:L:1:forces:R:3 energy=-445.29213239999996 stress="0.008462865675339657 -1.2924111943201813e-05 2.4645728496701828e-05 -1.2924111943201813e-05 0.0081560900342405 0.00026112888215226666 2.4645728496701828e-05 0.00026112888215226666 0.0029466484959958295" free_energy=-445.29303359 pbc="T T T"
Cu       1.25151999       1.25151999      10.00000011  F      -0.00009386      -0.02601927      -0.05769231
Cu       3.75454997       1.25151999      10.00000011  F      -0.00343481      -0.00477062      -0.05243171
Cu       6.25757994       1.25151999      10.00000011  F      -0.00728749       0.00960938      -0.05170010
Cu       8.76061004       1.25151999      10.00000011  F       0.00463668       0.01138098      -0.05259092
Cu      11.26364002       1.25151999      10.00000011  F       0.00224964      -0.00301165      -0.07318073
Cu       1.25151999       3.75454997      10.00000011  F       0.00423408       0.00689133      -0.06110483
Cu       3.75454997       3.75454997      10.00000011  F       0.00373002      -0.01118554      -0.04600347
Cu       6.25757994       3.75454997      10.00000011  F      -0.00754505      -0.00996232      -0.07784344
Cu       8.76061004       3.75454997      10.00000011  F       0.01872115      -0.01869954      -0.07205195
Cu      11.26364002       3.75454997      10.00000011  F      -0.01557290       0.00548168      -0.05940267
Cu       1.25151999       6.25757994      10.00000011  F       0.00233341      -0.00829390      -0.06800809
Cu       3.75454997       6.25757994      10.00000011  F       0.00662750       0.01066669      -0.05505153
Cu       6.25757994       6.25757994      10.00000011  F      -0.00707738       0.01996368      -0.07096317
Cu       8.76061004       6.25757994      10.00000011  F       0.01899147       0.02948128      -0.08525498
Cu      11.26364002       6.25757994      10.00000011  F      -0.01739778       0.00835952      -0.05107302
Cu       1.25151999       8.76061004      10.00000011  F       0.00261214       0.02245438      -0.07123418
Cu       3.75454997       8.76061004      10.00000011  F      -0.00263388       0.00280302      -0.07410292
Cu       6.25757994       8.76061004      10.00000011  F      -0.00191999      -0.02247222      -0.05200955
Cu       8.76061004       8.76061004      10.00000011  F       0.01758484      -0.02412611      -0.05020767
Cu      11.26364002       8.76061004      10.00000011  F      -0.01658013      -0.00973152      -0.07778089
Cu       1.25151999      11.26364002      10.00000011  F      -0.00049810       0.00509913      -0.02991916
Cu       3.75454997      11.26364002      10.00000011  F      -0.01653784       0.00197558      -0.06542006
Cu       6.25757994      11.26364002      10.00000011  F      -0.00436159       0.00519815      -0.07478144
Cu       8.76061004      11.26364002      10.00000011  F      -0.00258758       0.00126842      -0.05741767
Cu      11.26364002      11.26364002      10.00000011  F       0.02301495      -0.00165823      -0.06866280
Cu       0.00000000       0.00000000      11.76991004  F       0.02366715       0.05430718       0.13744413
Cu       2.50302998       0.00000000      11.76991004  F       0.02516707       0.05314892       0.14065412
Cu       5.00605995       0.00000000      11.76991004  F       0.00517596       0.09136540       0.12753459
Cu       7.50909005       0.00000000      11.76991004  F       0.01224028       0.07079850       0.11845122
Cu      10.01212003       0.00000000      11.76991004  F      -0.02809084       0.06867714       0.13739417
Cu       0.00000000       2.50302998      11.76991004  F      -0.05163697       0.01164739       0.13029518
Cu       2.50302998       2.50302998      11.76991004  F       0.06911320      -0.00277791       0.09898938
Cu       5.00605995       2.50302998      11.76991004  F      -0.04096908      -0.05166205       0.11704784
Cu       7.50909005       2.50302998      11.76991004  F      -0.02227118      -0.02901850       0.11837701
Cu      10.01212003       2.50302998      11.76991004  F       0.04368995      -0.05504313       0.07116859
Cu       0.00000000       5.00605995      11.76991004  F      -0.07156355      -0.02102420       0.09814650
Cu       2.50302998       5.00605995      11.76991004  F       0.07633741       0.01033572       0.08745607
Cu       5.00605995       5.00605995      11.76991004  F      -0.05769484      -0.00721681       0.16189174
Cu       7.50909005       5.00605995      11.76991004  F      -0.03884867       0.01773344       0.14803201
Cu      10.01212003       5.00605995      11.76991004  F       0.00806996       0.01822979       0.08089927
Cu       0.00000000       7.50909005      11.76991004  F      -0.10543892       0.00016666       0.10323148
Cu       2.50302998       7.50909005      11.76991004  F       0.08253549       0.01594863       0.09556038
Cu       5.00605995       7.50909005      11.76991004  F       0.01320036       0.04317009       0.09816026
Cu       7.50909005       7.50909005      11.76991004  F      -0.02710498       0.01691550       0.13663805
Cu      10.01212003       7.50909005      11.76991004  F       0.04016534       0.04693955       0.08337411
Cu       0.00000000      10.01212003      11.76991004  F       0.01203487       0.00051362       0.14362733
Cu       2.50302998      10.01212003      11.76991004  F       0.03542103       0.00989402       0.10277144
Cu       5.00605995      10.01212003      11.76991004  F       0.02612623      -0.04159136       0.12223177
Cu       7.50909005      10.01212003      11.76991004  F       0.02773834      -0.08098573       0.12797427
Cu      10.01212003      10.01212003      11.76991004  F      -0.05165763      -0.08574107       0.14233925