108
Lattice="12.51515363 0.0 0.0 0.0 12.51515363 0.0 0.0 0.0 25.30973" Properties=species:S:1:pos:R:3:move_mask:L:1:forces:R:3 energy=-444.09792403 stress="0.008138857445996756 -1.3885048446713673e-06 6.976272063200488e-05 -1.3885048446713673e-06 0.008452670107767435 3.1853791484310243e-06 6.976272063200488e-05 3.1853791484310243e-06 0.0028481504228425702" free_energy=-444.10152976 pbc="T T T"
Cu       1.25151999       1.25151999      10.00000011  F      -0.00318245      -0.01702647      -0.06787704
Cu       3.75454997       1.25151999      10.00000011  F       0.00609692       0.00523215      -0.07140992
Cu       6.25757994       1.25151999      10.00000011  F      -0.01077377       0.02079647      -0.05943395
Cu       8.76061004       1.25151999      10.00000011  F       0.01640455       0.00957210      -0.05107219
Cu      11.26364002       1.25151999      10.00000011  F      -0.01064872      -0.00200232      -0.07481969
Cu       1.25151999       3.75454997      10.00000011  F      -0.00258851       0.00903293      -0.07046227
Cu       3.75454997       3.75454997      10.00000011  F       0.01307685      -0.01815741      -0.04961556
Cu       6.25757994       3.75454997      10.00000011  F      -0.01228213      -0.02041578      -0.07810908
Cu       8.76061004       3.75454997      10.00000011  F       0.01803399      -0.01445051      -0.08604824
Cu      11.26364002       3.75454997      10.00000011  F      -0.01241500       0.00260248      -0.06143858
Cu       1.25151999       6.25757994      10.00000011  F      -0.00313168      -0.00762417      -0.07207190
Cu       3.75454997       6.25757994      10.00000011  F       0.01446805       0.01883264      -0.05006019
Cu       6.25757994       6.25757994      10.00000011  F      -0.01235690       0.02241693      -0.08124892
Cu       8.76061004       6.25757994      10.00000011  F       0.01678474       0.01512342      -0.08669359
Cu      11.26364002       6.25757994      10.00000011  F      -0.01199159      -0.00115955      -0.06316663
Cu       1.25151999       8.76061004      10.00000011  F      -0.00293243       0.01367777      -0.06656310
Cu       3.75454997       8.76061004      10.00000011  F       0.00540040      -0.00756798      -0.07030240
Cu       6.25757994       8.76061004      10.00000011  F      -0.01080878      -0.02497022      -0.05735043
Cu       8.76061004       8.76061004      10.00000011  F       0.01712142      -0.01198069      -0.05018395
Cu      11.26364002       8.76061004      10.00000011  F      -0.01097176      -0.00144003      -0.07362821
Cu       1.25151999      11.26364002      10.00000011  F       0.00036898       0.00179982      -0.01559677
Cu       3.75454997      11.26364002      10.00000011  F      -0.00832570       0.00157425      -0.07420708
Cu       6.25757994      11.26364002      10.00000011  F      -0.00833266       0.00208294      -0.06134742
Cu       8.76061004      11.26364002      10.00000011  F       0.00504604       0.00159101      -0.07163353
Cu      11.26364002      11.26364002      10.00000011  F       0.00914142       0.00190782      -0.07114373
Cu       0.00000000       0.00000000      11.76991004  F      -0.02108975       0.03746274       0.14470479
Cu       2.50302998       0.00000000      11.76991004  F       0.02989771       0.02880041       0.10747322
Cu       5.00605995       0.00000000      11.76991004  F       0.04553769       0.08249131       0.10279364
Cu       7.50909005       0.00000000      11.76991004  F       0.03454259       0.05870499       0.09917437
Cu      10.01212003       0.00000000      11.76991004  F      -0.00628348       0.06905459       0.12125789
Cu       0.00000000       2.50302998      11.76991004  F      -0.07621751       0.02962179       0.12338287
Cu       2.50302998       2.50302998      11.76991004  F       0.05744545       0.01802174       0.09850138
Cu       5.00605995       2.50302998      11.76991004  F       0.00905667      -0.01697691       0.12155844
Cu       7.50909005       2.50302998      11.76991004  F      -0.04339594       0.02298883       0.15818067
Cu      10.01212003       2.50302998      11.76991004  F       0.07571524      -0.06164539       0.06449908
Cu       0.00000000       5.00605995      11.76991004  F      -0.10006497       0.00203550       0.09542547
Cu       2.50302998       5.00605995      11.76991004  F       0.05400468       0.00155591       0.09185196
Cu       5.00605995       5.00605995      11.76991004  F      -0.02681774       0.00177171       0.17945569
Cu       7.50909005       5.00605995      11.76991004  F      -0.06975246       0.00124620       0.17516549
Cu      10.01212003       5.00605995      11.76991004  F       0.04982061       0.00048512       0.07647790
Cu       0.00000000       7.50909005      11.76991004  F      -0.07583971      -0.03251444       0.12482080
Cu       2.50302998       7.50909005      11.76991004  F       0.05754503      -0.02038504       0.09920247
Cu       5.00605995       7.50909005      11.76991004  F       0.01045639       0.01130063       0.12353904
Cu       7.50909005       7.50909005      11.76991004  F      -0.04254853      -0.02790361       0.15864613
Cu      10.01212003       7.50909005      11.76991004  F       0.07749717       0.05922255       0.06435209
Cu       0.00000000      10.01212003      11.76991004  F      -0.02124579      -0.03539128       0.14168211
Cu       2.50302998      10.01212003      11.76991004  F       0.03120861      -0.02700512       0.10627486
Cu       5.00605995      10.01212003      11.76991004  F       0.04529262      -0.08133525       0.10036251
Cu       7.50909005      10.01212003      11.76991004  F       0.03545144      -0.05829006       0.09663620
Cu      10.01212003      10.01212003      11.76991004  F      -0.00645672      -0.06891419       0.12050794
Cu       1.26567075       1.24294574      13.59045486  T      -0.00257410      -0.01501455      -0.00723020
Cu       3.78162776       1.25611618      13.60524157  T      -0.01276491      -0.00881215      -0.01901342
Cu       6.29321835       1.27610263      13.61156495  T       0.00171716       0.00493173       0.00042199
Cu       8.78022605       1.27455551      13.61429511  T      -0.00131522      -0.00173925      -0.00212032
Cu      11.26885458       1.26566475      13.61589139  T       0.01393329      -0.01491354      -0.01618306
Cu       1.23711267       3.75248972      13.57784657  T      -0.00007897       0.00316918      -0.01066229
Cu       3.75749741       3.75409830      13.60327880  T      -0.02493844       0.00099537      -0.00817165
Cu       6.25743552       3.77876078      13.60483560  T      -0.00766697       0.01307071      -0.02920557
Cu       8.74735187       3.76698027      13.56360529  T      -0.00377350      -0.00084887      -0.04751934
Cu      11.22353784       3.76237795      13.61683570  T       0.00073565      -0.00275914       0.00117930
Cu       1.23746723       6.26044904      13.57774229  T      -0.00149210      -0.00232916      -0.00995897
Cu       3.75793332       6.25726957      13.60362908  T      -0.02513759      -0.00098164      -0.00849528
Cu       6.25830382       6.23218132      13.60466248  T      -0.00759825      -0.01461018      -0.02867238
Cu       8.74821779       6.24462901      13.56342736  T      -0.00341836      -0.00128196      -0.04751364
Cu      11.22405571       6.24964534      13.61675926  T      -0.00099164       0.00148290      -0.00001808
Cu       1.26582219       8.77000980      13.59043588  T      -0.00284847       0.01200290      -0.00726503
Cu       3.78172287       8.75587018      13.60479864  T      -0.01279433       0.00754370      -0.01775925
Cu       6.29380781       8.73525184      13.61122934  T       0.00103213      -0.00204167       0.00075000
Cu       8.78089223       8.73708231      13.61421311  T      -0.00140589       0.00540369      -0.00104383
Cu      11.26922503       8.74604078      13.61621384  T       0.01262184       0.01626394      -0.01517494
Cu       1.24772164      11.26402786      13.61214910  T      -0.01347640       0.00175603      -0.00724757
Cu       3.74078580      11.26360022      13.58285182  T      -0.01859629       0.00156544       0.00083456
Cu       6.25588677      11.26324579      13.57232424  T      -0.00003812       0.00277147      -0.00737281
Cu       8.76587917      11.26334529      13.58196294  T      -0.00553569       0.00183810      -0.00794643
Cu      11.27018607      11.26339910      13.59233942  T       0.02538316       0.00147815      -0.00589323
Cu      12.51058234       0.00591278      15.40417011  T       0.00444550       0.00441472      -0.08698334
Cu       2.50745433       0.00631502      15.39899553  T       0.00230527       0.00657298      -0.08250915
Cu       5.00506462      12.47897195      15.36910753  T       0.01468249      -0.00137823      -0.04860346
Cu       7.51010991      12.49363257      15.36055588  T      -0.00408976      -0.00180953      -0.05611592
Cu      10.01316129      12.49925913      15.38356242  T      -0.01100205      -0.00051770      -0.06040281
Cu       0.06764841       2.50466658      15.37915675  T       0.01541607       0.00996136      -0.04024681
Cu       2.53121285       2.50712493      15.37401255  T      -0.00061829       0.00733780      -0.04941369
Cu       4.99559716       2.40927183      15.44045844  T      -0.04513746      -0.05871773      -0.07826282
Cu       7.61643428       2.49588557      15.46055234  T       0.05366722      -0.08325242      -0.12767332
Cu      10.12328350       2.46317021      15.48222683  T       0.03980687      -0.05035048      -0.07123831
Cu      12.44797416       5.00637946      15.36468465  T      -0.00944562       0.00339240      -0.06082237
Cu       2.35550322       5.00686430      15.38680763  T      -0.04871321       0.00142688      -0.04201532
Pd       4.83802937       5.00363564      15.60024054  T      -0.01502020       0.00443759      -0.04580173
Y        7.41645489       5.00549351      17.29152098  T      -0.12185393       0.00103323       0.13283688
Cu       9.93588672       5.00529552      15.49235022  T       0.10205418       0.00131264      -0.16751336
Cu       0.06872534       7.50789973      15.37952223  T       0.01400556      -0.01570572      -0.03908044
Cu       2.53183961       7.50664434      15.37383361  T      -0.00163294      -0.01502430      -0.04853996
Cu       4.99606335       7.60017046      15.43812438  T      -0.04540269       0.06434342      -0.08045563
Cu       7.61821493       7.51564086      15.45995377  T       0.05357540       0.08235852      -0.12584455
Cu      10.12441862       7.54724875      15.48294462  T       0.03803179       0.05107277      -0.07084209
Cu      12.51052603      10.00675666      15.40431134  T       0.00441091      -0.00331679      -0.08685272
Cu       2.50738325      10.00734349      15.39893277  T       0.00294943      -0.00601499      -0.08326022
Cu       5.00505386      10.04595349      15.36880052  T       0.01656844      -0.00026021      -0.04835937
Cu       7.51012030      10.03289455      15.36052019  T      -0.00370465      -0.00392417      -0.05643138
Cu      10.01303050      10.02652096      15.38382235  T      -0.01193145      -0.00145850      -0.06121737
O        6.23064909       3.38295491      16.49245635  T      -0.11566818       0.02968642       0.08449927
O        6.23204653       6.62557577      16.48740023  T      -0.11224044      -0.02379313       0.07924777
O        9.01240179       6.43398642      16.55881011  T       0.04350263       0.09741159       0.12438266
O        9.01149833       3.57621917      16.55807993  T       0.04376667      -0.09544405       0.12435524
C        5.19017213       5.02441004      18.61099642  T      -0.25895373       0.01456842       0.59149508
O        4.90772388       5.05624472      19.97057007  T       0.45567852      -0.02289209      -0.66584340
O        4.17127542       5.01777901      17.87296267  T       0.14900991      -0.00033544       0.20409202
H        3.92697449       5.06871269      20.04223153  T      -0.28240084       0.00207320       0.08425942
108
Lattice="12.51515363 0.0 0.0 0.0 12.51515363 0.0 0.0 0.0 25.30973" Properties=species:S:1:pos:R:3:move_mask:L:1:forces:R:3 energy=-444.10949452 stress="0.008243390783848342 -2.3022180901367953e-06 6.453899567475202e-05 -2.3022180901367953e-06 0.008509861636348252 1.0372202280484057e-06 6.453899567475202e-05 1.0372202280484057e-06 0.002783499853950684" free_energy=-444.11307216 pbc="T T T"
Cu       1.25151999       1.25151999      10.00000011  F      -0.00328998      -0.01789162      -0.06825357
Cu       3.75454997       1.25151999      10.00000011  F       0.00563514       0.00458191      -0.07162672
Cu       6.25757994       1.25151999      10.00000011  F      -0.01127855       0.02047820      -0.05951061
Cu       8.76061004       1.25151999      10.00000011  F       0.01647390       0.00919254      -0.05007266
Cu      11.26364002       1.25151999      10.00000011  F      -0.01009600      -0.00279653      -0.07490326
Cu       1.25151999       3.75454997      10.00000011  F      -0.00257308       0.00864160      -0.07064213
Cu       3.75454997       3.75454997      10.00000011  F       0.01287992      -0.01832818      -0.04997942
Cu       6.25757994       3.75454997      10.00000011  F      -0.01250828      -0.02054356      -0.07845877
Cu       8.76061004       3.75454997      10.00000011  F       0.01788210      -0.01444203      -0.08613606
Cu      11.26364002       3.75454997      10.00000011  F      -0.01229294       0.00220781      -0.06078881
Cu       1.25151999       6.25757994      10.00000011  F      -0.00311853      -0.00717568      -0.07226662
Cu       3.75454997       6.25757994      10.00000011  F       0.01426511       0.01903736      -0.05044595
Cu       6.25757994       6.25757994      10.00000011  F      -0.01257926       0.02257475      -0.08162044
Cu       8.76061004       6.25757994      10.00000011  F       0.01663532       0.01516075      -0.08678437
Cu      11.26364002       6.25757994      10.00000011  F      -0.01186221      -0.00071331      -0.06250356
Cu       1.25151999       8.76061004      10.00000011  F      -0.00305061       0.01453985      -0.06701256
Cu       3.75454997       8.76061004      10.00000011  F       0.00491985      -0.00690796      -0.07055849
Cu       6.25757994       8.76061004      10.00000011  F      -0.01130869      -0.02465024      -0.05746252
Cu       8.76061004       8.76061004      10.00000011  F       0.01721617      -0.01160124      -0.04921598
Cu      11.26364002       8.76061004      10.00000011  F      -0.01041206      -0.00064710      -0.07370505
Cu       1.25151999      11.26364002      10.00000011  F       0.00030671       0.00178069      -0.01714746
Cu       3.75454997      11.26364002      10.00000011  F      -0.00905967       0.00156572      -0.07540202
Cu       6.25757994      11.26364002      10.00000011  F      -0.00881565       0.00208286      -0.06156028
Cu       8.76061004      11.26364002      10.00000011  F       0.00537193       0.00157811      -0.07182106
Cu      11.26364002      11.26364002      10.00000011  F       0.00971318       0.00188895      -0.07146081
Cu       0.00000000       0.00000000      11.76991004  F      -0.02090659       0.03685978       0.14325968
Cu       2.50302998       0.00000000      11.76991004  F       0.02921558       0.02816946       0.10631292
Cu       5.00605995       0.00000000      11.76991004  F       0.04508405       0.08206620       0.10250900
Cu       7.50909005       0.00000000      11.76991004  F       0.03450043       0.05853897       0.09908730
Cu      10.01212003       0.00000000      11.76991004  F      -0.00583549       0.06844705       0.12120826
Cu       0.00000000       2.50302998      11.76991004  F      -0.07621945       0.02899949       0.12323537
Cu       2.50302998       2.50302998      11.76991004  F       0.05680334       0.01736866       0.09800496
Cu       5.00605995       2.50302998      11.76991004  F       0.00852557      -0.01738263       0.12149884
Cu       7.50909005       2.50302998      11.76991004  F      -0.04363786       0.02229937       0.15762637
Cu      10.01212003       2.50302998      11.76991004  F       0.07635546      -0.06243259       0.06439278
Cu       0.00000000       5.00605995      11.76991004  F      -0.10028365       0.00205990       0.09549537
Cu       2.50302998       5.00605995      11.76991004  F       0.05360345       0.00159413       0.09125118
Cu       5.00605995       5.00605995      11.76991004  F      -0.02776214       0.00179992       0.17866503
Cu       7.50909005       5.00605995      11.76991004  F      -0.07016656       0.00126938       0.17368339
Cu      10.01212003       5.00605995      11.76991004  F       0.05054028       0.00048286       0.07581094
Cu       0.00000000       7.50909005      11.76991004  F      -0.07587901      -0.03185192       0.12467994
Cu       2.50302998       7.50909005      11.76991004  F       0.05691182      -0.01970327       0.09870310
Cu       5.00605995       7.50909005      11.76991004  F       0.00994388       0.01174497       0.12351847
Cu       7.50909005       7.50909005      11.76991004  F      -0.04279202      -0.02716474       0.15819946
Cu      10.01212003       7.50909005      11.76991004  F       0.07810452       0.06006721       0.06428523
Cu       0.00000000      10.01212003      11.76991004  F      -0.02105301      -0.03481315       0.14030925
Cu       2.50302998      10.01212003      11.76991004  F       0.03051914      -0.02641153       0.10520919
Cu       5.00605995      10.01212003      11.76991004  F       0.04482567      -0.08090642       0.10015213
Cu       7.50909005      10.01212003      11.76991004  F       0.03539626      -0.05810209       0.09660769
Cu      10.01212003      10.01212003      11.76991004  F      -0.00599929      -0.06829243       0.12048226
Cu       1.26564585       1.24280094      13.59038501  T      -0.00275937      -0.01348189      -0.00930272
Cu       3.78150448       1.25603121      13.60505832  T      -0.01255317      -0.00909259      -0.02118496
Cu       6.29323487       1.27615019      13.61156900  T       0.00122462       0.00450256      -0.00234566
Cu       8.78021341       1.27453874      13.61427461  T       0.00035560      -0.00296380      -0.00607526
Cu      11.26898900       1.26552095      13.61573523  T       0.01346658      -0.01429057      -0.01818034
Cu       1.23711192       3.75252039      13.57774381  T      -0.00094361       0.00206894      -0.01232151
Cu       3.75725675       3.75410793      13.60319983  T      -0.02350036       0.00124914      -0.00878027
Cu       6.25736155       3.77888681      13.60455390  T      -0.00762246       0.01118991      -0.02680410
Cu       8.74731557       3.76697201      13.56314668  T      -0.00365846      -0.00088640      -0.04390378
Cu      11.22354497       3.76235129      13.61684709  T       0.00122084      -0.00410635      -0.00194610
Cu       1.23745284       6.26042664      13.57764611  T      -0.00228704      -0.00130431      -0.01182903
Cu       3.75769077       6.25726006      13.60354708  T      -0.02363779      -0.00119559      -0.00922015
Cu       6.25823061       6.23204027      13.60438584  T      -0.00752173      -0.01249329      -0.02627714
Cu       8.74818475       6.24461662      13.56296875  T      -0.00337098      -0.00101950      -0.04391858
Cu      11.22404620       6.24965960      13.61675901  T      -0.00047192       0.00301730      -0.00313579
Cu       1.26579465       8.77012557      13.59036577  T      -0.00304683       0.01075235      -0.00920812
Cu       3.78159947       8.75594302      13.60462730  T      -0.01271934       0.00796970      -0.02002748
Cu       6.29381782       8.73523207      13.61123643  T       0.00062403      -0.00175946      -0.00220659
Cu       8.78087871       8.73713449      13.61420298  T       0.00024104       0.00629540      -0.00518063
Cu      11.26934680       8.74619772      13.61606730  T       0.01230865       0.01542799      -0.01721693
Cu       1.24759161      11.26404476      13.61207924  T      -0.01223112       0.00149649      -0.01012035
Cu       3.74060634      11.26361524      13.58285992  T      -0.01731930       0.00138493      -0.00174954
Cu       6.25588639      11.26327257      13.57225312  T      -0.00065963       0.00259626      -0.00929625
Cu       8.76582573      11.26336293      13.58188625  T      -0.00432441       0.00173338      -0.00962910
Cu      11.27043099      11.26341337      13.59228273  T       0.02238529       0.00135759      -0.00794522
Cu      12.51062527       0.00595534      15.40333084  T       0.00385949       0.00443131      -0.08311948
Cu       2.50747661       0.00637847      15.39819954  T       0.00228507       0.00625739      -0.07923396
Cu       5.00520629      12.47895868      15.36863854  T       0.01369516      -0.00285776      -0.04713599
Cu       7.51007036      12.49361505      15.36001450  T      -0.00394694      -0.00368087      -0.05379298
Cu      10.01305516      12.49925425      15.38297954  T      -0.01024040      -0.00216930      -0.05865427
Cu       0.06779709       2.50476270      15.37876825  T       0.01536607       0.00931989      -0.03909378
Cu       2.53120684       2.50719564      15.37353597  T      -0.00210251       0.00707309      -0.04761258
Cu       4.99516163       2.40870526      15.43970320  T      -0.03533818      -0.04797736      -0.06860843
Cu       7.61695215       2.49508235      15.45932052  T       0.04063621      -0.06373593      -0.10594496
Cu      10.12366759       2.46268437      15.48153942  T       0.03139002      -0.04072121      -0.06093838
Cu      12.44788305       5.00641225      15.36409772  T      -0.00773500       0.00312027      -0.05809332
Cu       2.35503315       5.00687807      15.38640242  T      -0.04502513       0.00122570      -0.03876953
Pd       4.83788444       5.00367857      15.59979863  T      -0.01151822       0.00424647      -0.03241545
Y        7.41527921       5.00550340      17.29280266  T      -0.10677728       0.00107661       0.11775444
Cu       9.93687129       5.00530816      15.49073419  T       0.08100226       0.00112317      -0.14465473
Cu       0.06886050       7.50774830      15.37914511  T       0.01398335      -0.01462554      -0.03804336
Cu       2.53182384       7.50649941      15.37336538  T      -0.00310324      -0.01437049      -0.04673746
Cu       4.99562519       7.60079133      15.43734813  T      -0.03578970       0.05366036      -0.07114115
Cu       7.61873181       7.51643544      15.45873966  T       0.04131134       0.06358324      -0.10501393
Cu      10.12478557       7.54774148      15.48226100  T       0.02990033       0.04149170      -0.06051005
Cu      12.51056858      10.00672462      15.40347333  T       0.00382087      -0.00351566      -0.08311507
Cu       2.50741178      10.00728555      15.39812943  T       0.00289429      -0.00577628      -0.07997554
Cu       5.00521368      10.04595099      15.36833406  T       0.01550891       0.00152659      -0.04705438
Cu       7.51008463      10.03285663      15.35997552  T      -0.00360926      -0.00174107      -0.05409251
Cu      10.01291536      10.02650695      15.38323187  T      -0.01112955       0.00035357      -0.05938855
O        6.22953311       3.38324138      16.49327183  T      -0.10621094       0.01697045       0.06701960
O        6.23096359       6.62534624      16.48816484  T      -0.10306694      -0.01140483       0.06210346
O        9.01282155       6.43492630      16.56001005  T       0.04478748       0.09208870       0.10697530
O        9.01192059       3.57529830      16.55927986  T       0.04514158      -0.09032662       0.10696605
C        5.18767360       5.02455059      18.61670351  T      -0.04737698       0.00701438       0.32359433
O        4.91212046       5.05602382      19.96414545  T       0.07480472      -0.01201214      -0.32956081
O        4.17271317       5.01777576      17.87493202  T       0.03162360      -0.00071956       0.13446264
H        3.92424982       5.06873259      20.04304448  T       0.00891220      -0.00169666       0.06678148
108
Lattice="12.51515363 0.0 0.0 0.0 12.51515363 0.0 0.0 0.0 25.30973" Properties=species:S:1:pos:R:3:move_mask:L:1:forces:R:3 energy=-444.11822776 stress="0.008235386073360435 -2.2401400403707602e-06 5.828939131153249e-05 -2.2401400403707602e-06 0.008488723373836913 -1.317039565180004e-06 5.828939131153249e-05 -1.317039565180004e-06 0.0026443323882010803" free_energy=-444.1217929 pbc="T T T"
Cu       1.25151999       1.25151999      10.00000011  F      -0.00340708      -0.01784444      -0.06779865
Cu       3.75454997       1.25151999      10.00000011  F       0.00558411       0.00452592      -0.07124357
Cu       6.25757994       1.25151999      10.00000011  F      -0.01131783       0.02043888      -0.05919355
Cu       8.76061004       1.25151999      10.00000011  F       0.01641252       0.00919286      -0.04984209
Cu      11.26364002       1.25151999      10.00000011  F      -0.01019191      -0.00274245      -0.07464961
Cu       1.25151999       3.75454997      10.00000011  F      -0.00269451       0.00861151      -0.07037752
Cu       3.75454997       3.75454997      10.00000011  F       0.01273679      -0.01825383      -0.04975030
Cu       6.25757994       3.75454997      10.00000011  F      -0.01251037      -0.02053742      -0.07833822
Cu       8.76061004       3.75454997      10.00000011  F       0.01784559      -0.01443298      -0.08601765
Cu      11.26364002       3.75454997      10.00000011  F      -0.01238378       0.00220383      -0.06053659
Cu       1.25151999       6.25757994      10.00000011  F      -0.00321549      -0.00714566      -0.07200555
Cu       3.75454997       6.25757994      10.00000011  F       0.01414052       0.01899508      -0.05017470
Cu       6.25757994       6.25757994      10.00000011  F      -0.01259074       0.02260596      -0.08147288
Cu       8.76061004       6.25757994      10.00000011  F       0.01656616       0.01515636      -0.08667309
Cu      11.26364002       6.25757994      10.00000011  F      -0.01195146      -0.00072151      -0.06227526
Cu       1.25151999       8.76061004      10.00000011  F      -0.00314400       0.01453323      -0.06656862
Cu       3.75454997       8.76061004      10.00000011  F       0.00488522      -0.00682532      -0.07008890
Cu       6.25757994       8.76061004      10.00000011  F      -0.01135970      -0.02459585      -0.05706599
Cu       8.76061004       8.76061004      10.00000011  F       0.01713016      -0.01156792      -0.04898983
Cu      11.26364002       8.76061004      10.00000011  F      -0.01050676      -0.00065254      -0.07353224
Cu       1.25151999      11.26364002      10.00000011  F       0.00024658       0.00180780      -0.01660209
Cu       3.75454997      11.26364002      10.00000011  F      -0.00908293       0.00157343      -0.07480356
Cu       6.25757994      11.26364002      10.00000011  F      -0.00896764       0.00209263      -0.06115977
Cu       8.76061004      11.26364002      10.00000011  F       0.00534900       0.00160595      -0.07161925
Cu      11.26364002      11.26364002      10.00000011  F       0.00952081       0.00192198      -0.07095038
Cu       0.00000000       0.00000000      11.76991004  F      -0.02084052       0.03684710       0.14137536
Cu       2.50302998       0.00000000      11.76991004  F       0.02907089       0.02791006       0.10492584
Cu       5.00605995       0.00000000      11.76991004  F       0.04505953       0.08191572       0.10191650
Cu       7.50909005       0.00000000      11.76991004  F       0.03433545       0.05856829       0.09826658
Cu      10.01212003       0.00000000      11.76991004  F      -0.00602396       0.06831385       0.12050603
Cu       0.00000000       2.50302998      11.76991004  F      -0.07627142       0.02921383       0.12236134
Cu       2.50302998       2.50302998      11.76991004  F       0.05633478       0.01723208       0.09689657
Cu       5.00605995       2.50302998      11.76991004  F       0.00816115      -0.01752290       0.12098495
Cu       7.50909005       2.50302998      11.76991004  F      -0.04417177       0.02168387       0.15615483
Cu      10.01212003       2.50302998      11.76991004  F       0.07691088      -0.06289993       0.06318955
Cu       0.00000000       5.00605995      11.76991004  F      -0.10066836       0.00206063       0.09460047
Cu       2.50302998       5.00605995      11.76991004  F       0.05323260       0.00160528       0.08989173
Cu       5.00605995       5.00605995      11.76991004  F      -0.02887864       0.00179048       0.17735838
Cu       7.50909005       5.00605995      11.76991004  F      -0.07074122       0.00126303       0.17091976
Cu      10.01212003       5.00605995      11.76991004  F       0.05153911       0.00044625       0.07384521
Cu       0.00000000       7.50909005      11.76991004  F      -0.07599835      -0.03202451       0.12381904
Cu       2.50302998       7.50909005      11.76991004  F       0.05643917      -0.01955770       0.09758049
Cu       5.00605995       7.50909005      11.76991004  F       0.00961825       0.01191986       0.12304888
Cu       7.50909005       7.50909005      11.76991004  F      -0.04330874      -0.02650262       0.15687379
Cu      10.01212003       7.50909005      11.76991004  F       0.07860719       0.06060736       0.06315110
Cu       0.00000000      10.01212003      11.76991004  F      -0.02098657      -0.03476161       0.13854162
Cu       2.50302998      10.01212003      11.76991004  F       0.03035964      -0.02611094       0.10395378
Cu       5.00605995      10.01212003      11.76991004  F       0.04478396      -0.08065800       0.09965330
Cu       7.50909005      10.01212003      11.76991004  F       0.03522892      -0.05801089       0.09584903
Cu      10.01212003      10.01212003      11.76991004  F      -0.00618003      -0.06807244       0.11982077